<?xml version="1.0" encoding="UTF-8"?>
<VTKFile type="UnstructuredGrid" version="0.1" byte_order="LittleEndian">
<UnstructuredGrid>
<Piece NumberOfPoints="958" NumberOfCells="1882">
<PointData>
<DataArray type="Float64" Name="Color" Format="ascii">
1.4983517331397729
1.5147988261902072
1.2666023854947517
1.4750076005094033
1.1425201648389713
1.5324388883128361
1.192733437279436
1.454620514626804
1.4619607642653225
1.112872664986142
1.1141864490998208
1.4935728206659786
1.476219088983245
1.1341641418136736
1.535799415229875
1.2791682738996144
1.458919073068667
1.0793031022086235
1.0815641248368653
1.5059626765503114
1.1299232689176064
1.5207269447142833
1.2333353294027352
1.1290727325285204
-0.24466614606559622
-0.549603338282423
-0.3134875241999547
-0.8781289188839475
-0.8256521667189645
-0.14983046491654003
-0.07016054187767297
0
-0.10793998508430887
-0.08380862449424181
0
-0.7817484274735857
-1.1037282508578439
1.3871581276232279
-0.9692050731481657
-1.5388903848205746
-0.15290107588548632
-0.15608551275021273
-0.18157302402605244
0
-0.14070550868825468
-4.944842878551783
-4.945404412963538
-4.858692710604785
-4.945826615873817
-4.855426209457228
-4.944039169154865
-4.850853887466163
-4.942891517568616
-4.84006516995077
-4.941324773683337
-4.836008805311977
-4.938845220609106
-4.821342374212565
-4.93463130571569
-4.79945610887581
-4.408838533145096
-2.009845230072855
-4.925928394375238
-4.786595312944008
-4.896600652155263
-4.7877954218290855
-4.946039217968729
-4.945845919249108
-4.876758799011355
-5
0
-0.28619010969945696
-4.946137866985393
-4.860327008315388
-4.946645724511946
-4.946652725228936
-4.8717934543387535
-4.946598930446663
-4.877436238192693
-4.946358577589037
-4.863782122169908
-4.9465104884625255
-4.866473595711146
-4.876556724909668
-5
-5
-5
-5
-5
-5
-5
-5
-4.991594489366304
-5
-5
-5
-4.989734391984057
-5
-5
-5
-5
-2.22733629573663
-2.383993597314628
-4.752768130740919
-4.840463241273176
-4.685236532218357
-4.94562952866812
-4.875719119136939
-4.945384520700235
-4.872347244840618
-4.945123864902484
-4.875501259751953
-4.946212771582652
-4.874795213483504
-4.946355855288025
-4.880709197056958
-4.946472930797342
-4.879706983490585
-4.946624402669037
-4.874222997520889
-4.946563874560666
-4.8760723461605915
-4.876099074486917
-5
-5
-5
-5
-5
-4.984932505538157
-4.98506768931365
-4.824686427311916
-4.7199325404757255
-4.393891708067328
-4.878143380557318
-4.858505630731558
-4.582575776812242
-4.52654636049326
-4.949347645983537
-4.889792963736146
-4.655232463627839
-4.9518621105021605
-4.898052462544114
-4.691729908724418
-4.904657554191441
-4.711149241614977
-4.909890876595125
-4.746190085499474
-4.914031816205337
-4.76305841842506
-4.917369454866708
-4.777639589538517
-4.920338212049233
-4.7907331622770535
-4.1807312490628386
-4.010225432301454
-5
0
-0.540377282493352
-5
-5
-5
-5
-5
-4.981196256301707
-4.982211166074278
-4.983985961389223
-4.9829590243184745
-4.983528050044346
-4.9799371198305105
-4.97807206032472
-4.975553272094278
-4.971135644967042
-4.962736344943189
-4.785275211806663
-4.935337289872876
-0.1457520335547023
-2.010192873295686
-4.922737598466845
-4.815388530666588
-4.9448426075496315
-4.876124383071523
-4.944528095280898
-4.870914639480819
-5
-5
-5
-5
-5
-4.985166744873065
-4.985128914699936
-4.985211708115322
-4.984302206461508
-4.9845494012940845
-4.984760429306099
-4.96771929333159
-4.967761714378773
-4.9664504399215454
-5
-5
-5
-5
-5
-5
-4.959760419057758
-5
-5
-5
-5
-5
-5
-5
-5
-5
-4.749495141166634
-4.217089701304752
0
-0.969083142787792
-4.984341973308557
-4.985007110392768
-4.9848431444379715
-4.984618827123671
-4.953834893791284
-4.957551323458872
-4.96359278280994
-4.960529318467867
-4.963753197744612
-4.962627997028442
-4.801118443566881
-4.9480758800882425
-4.936222760325022
-4.918140615295915
-4.891759555730695
-4.863663894880709
-3.4729706680216474
-2.586354624082229
-4.944200671942135
-4.8734073687467445
-4.924788767689805
-4.829139236941459
-5
-4.926615280832544
-4.8305636522427156
-4.928211308146214
-4.840695600921371
-4.929661584773613
-4.84504270258195
-5
-5
-4.984023580394481
-4.985229860767652
-4.985260840343629
-4.985254151795111
-4.964754624638872
-4.965816440413348
-4.9654092098070945
-4.9646437275375455
-4.964645578076763
-4.965419625080641
-4.966709438082163
-4.919205752282181
-4.851016376935959
-4.906859652807845
-4.885729416585414
-4.9282095361865705
-4.93564652125383
-4.941209714162134
-4.790572069370209
-4.945930394017061
-4.94973351799542
-4.955991988685116
-4.953098616024135
-4.466704769820307
-4.132769283942495
0
-1.1361591883343671
-4.962584504733798
-4.963521616604248
-4.960702293832363
-6.6520509255553515
-4.246413397040914
-4.931029758803359
-4.841700401275486
-4.943851331194058
-4.870199072478067
-5
-5
-4.95843372367336
-5
-5
-5
-4.983713669977341
-4.983356654560459
-4.965656700164463
-4.959425337829163
-4.961392414583769
-4.745898324885887
-4.581548110843116
-4.654885496553656
-4.8141096880871865
-4.869887924540268
-4.856846099848227
-4.905445471701192
-4.870126238834241
-4.884715730059958
-4.895597065361442
0
-1.3301006610141506
0
-1.0270866425361034
-4.273541802377268
-4.745583549633632
-1.5151971289996156
-3.876086972938208
-3.8725343586591916
-4.932256463391659
-4.846967110998972
-5
-4.943462867350212
-4.863304604533455
-5
-4.982970545890212
-4.960518925194916
-4.908594771100632
-4.962497900981917
-4.964471913366633
-4.966206076793676
-4.962379279373208
-4.961213362113722
-1.6266947057326755
-4.402119358461815
-4.32351728345208
-4.9677868321847605
-4.933394781304585
-4.844947540938414
-5
-5
-4.943061923963618
-4.867988678115618
-4.98253863109257
-4.958453992587611
-4.902377497826279
-4.89843572602712
-4.908740158559117
-4.918290332715021
-3.048714770347745
-2.1163660026132245
-4.560614087718351
-4.6020445515497945
-4.982050870328801
-4.969324631428731
-4.9245039736036995
-4.934470829534816
-4.841509826279455
-5
-5
-4.9426372850309415
-4.869762105471957
-4.95528385726481
-3.9915892596264624
-3.802245882447637
-4.446703161872166
-4.637869373826292
-4.981528188301454
-4.953663519455234
-4.970726789868785
-4.932338761635543
-4.935437433151257
-4.847614289715049
-5
-5
-4.942168400420864
-4.864171591594308
-4.339571527944927
-4.9809549475190815
-4.9514516153565395
-4.972023149818029
-4.936765123743064
-4.936341728828078
-4.848747602859482
-5
-5
-4.941688066549868
-4.870530770264863
-4.980333786583922
-4.948733909439722
-4.973270559357233
-4.93814831893748
-4.937201449957617
-4.84690846770019
-5
-5
-4.941180156251002
-4.871691780629887
-4.979694650997815
-4.94738556873687
-4.974419674114308
-4.942119346653178
-4.937973640069104
-4.85359213255878
-5
-5
-4.940615644546938
-4.863117674417636
-4.978955252767289
-4.940805474540966
-4.975458844896919
-4.946218799952434
-4.938696826930616
-4.855406273052214
-5
-4.9393960468606215
-4.852173636137786
-5
-4.940021733850116
-4.861759828712579
-4.860909931619339
-4.978115714048406
-4.938347349290518
-4.976418458721205
-4.947123863573441
-5
-5
-4.977286491772467
-4.947103294386872
-4.943630961673105
1.1911605927118647
1.1471909422437532
1.0745054462866281
1.0110029834937337
1.1075767402914025
1.0448882186430664
0.9062115298665301
0.9386715068290148
0.9834467923903362
0.8950937885218255
0.9387106181783065
1.0488819155018734
0.9883679154447099
0.91263819187532
0.8667562356362796
0.8428740343163774
0.7928514962359445
0.7511597040032508
0.8639941809062294
0.860353336872224
0.7142726163937818
0.7224731111782944
0.6608926040091049
1.049535323202881
1.0375744151014572
0.8933315725109224
0.9083555156674258
1.1405210118249924
1.1385695844629036
0.7480907588323573
0.8407292478619385
0.9543430894198528
1.0087151846548676
0.8958247923133144
0.9729567249962688
0.8419950384797474
0.8196843798687128
0.8214859966053447
0.7224479901560682
0.6571717020915012
0.5721903273768952
0.532975090248568
0.5535900398164693
0.564457414331767
0.4445259395665732
0.4230459525629583
0.5127667874287994
0.7918911300397278
0.872267092801561
0.7712899824161362
0.6944920772422466
0.9307533782332503
0.9533662784975124
0.6197496049963352
0.7346332118843356
0.737369333138555
0.802516695517495
0.7467036340882053
0.6787108885640825
0.596601896721972
0.529691083121009
0.42067675395818555
0.3116814799753917
0.3326966346297619
0.24017291160781679
0.12707175840684495
0.1622294767309333
-0.13575170964478167
0.11991517497989998
0.38848915698418157
0.4267341941677798
0.6124058117450982
0.4707011380204622
0.30978882568429494
0.6339459085689484
0.45126067605205594
0.5385625043289347
0.5173485151587137
0.34826160171248016
0.20539308338840975
0.19546730408252802
0.2221581992919416
0.05414455053046364
0.014899087182519477
-0.15180022877867397
-0.5244568992183525
-0.37395214955138045
-0.8884664116974136
0.1708841133870895
0.09916872405297338
0.3207597248379575
0.16156713920157106
0.06323865962204991
0.22131201157372485
0.21699383969320674
0.023123246267769265
-0.1526528239876259
-0.10210658187600544
-0.5332655338533989
-0.31791418407280164
-0.4742147569203179
-4.74582600200609
-4.785177705982403
-4.67068172408301
-4.761230395182722
-4.761217831295585
-4.722220305710848
-4.741935919069446
-0.9625626347180207
-1.3335032626323102
-4.691684265272233
-4.603072111422901
-4.596399351888394
-4.582271395529128
-0.09392267746846436
-0.21811802783845136
-0.01115198468213679
-0.09104298769723526
-0.16427508341658395
-0.36168894080955316
-0.45819354186611816
-0.5703971995511316
-0.9600674552305136
-0.7624959672220397
-4.532073162573326
-4.650426809074914
-4.545022976287027
-4.786002969890378
-4.665553672826003
-4.777308937537646
-4.787828261467143
-4.670443400453293
-4.813529661572243
-4.721334657142365
-4.797826571411179
-4.789668362666646
-1.5612996644070685
-1.874046544922776
-4.6664532404529835
-4.439842251852987
-4.489828008551792
-4.39727023413008
-4.807633052215543
-4.824855455578804
-4.748028376734644
-4.805447036567775
-0.3043988332022343
-0.3676623338216529
-0.36671698823599286
-0.4666021309807849
-0.550245875138742
-0.873270219267084
-1.0323975703658765
-1.4036063575208781
-4.3826751860285755
-4.49060360768086
-4.495999601522981
-4.573045256693846
-4.685689243862249
-4.80831333446535
-4.701272063024091
-4.800145468752221
-4.7175301784643695
-4.225379173621614
-3.9081294266119095
-2.0396088213064503
-2.0789398352398227
-4.755532162417536
-4.68942284516862
-4.619786691937567
-4.442584983699188
-4.078786007910008
-4.238537272895315
-4.633624944412135
-4.695234907461916
-4.62847833946243
-4.274081401853277
-4.376421027638977
-4.502091861464867
-3.918355853943353
-3.516494348290816
-4.499423804173957
-4.604806736210293
-4.639218817815219
-4.802483407580344
-4.821356852703899
-4.703220457820309
-0.6946944178198595
-0.7510363589076096
-1.1794410486146492
-1.1099958130994378
-1.5625129394515815
-1.6117157503429484
-2.1149347681830175
-2.5671320662913764
-4.20775978050514
-3.8653178584534644
-4.354408875136335
-4.51178014869959
-4.570777662596419
-3.452805436729007
-3.5716943600626148
-4.168023334354459
-3.063984543629434
-3.2857623121271056
-2.536850976523493
-4.5908348722894
-4.474823711654583
-4.271941962958096
-3.836624356589681
-4.560366643748367
-4.677182900415249
-4.591166963635737
-4.587476756560243
-4.643934409091341
-3.196142547015979
-3.47935579232596
-2.769964996555493
-2.105401639404677
-1.7138626891123103
-4.044814246394384
-4.280000792285782
-3.6901336698309195
-4.31987296965892
-4.639435529023412
-4.68247690694007
-4.740415132742104
-4.595929593870754
-4.517730065957269
-4.735563114569412
-4.796707445145906
-4.795193706435925
-4.818713972083105
-4.6106378952253015
-1.4023469455312727
-1.814844808140387
-1.9866229707573881
-2.329362495990859
-2.820803437898272
-3.443696505328891
-3.915691011885173
-4.340845645619733
-4.729764094048066
-4.741236322937194
-4.774195532778651
-2.9918700998312713
-3.79072510882287
-3.998746697769145
-3.1672528860773763
-3.9642250684442635
-3.684476822001486
-2.3120939116354937
-4.709894972294854
-4.929164700198622
-3.3862997608913687
-4.369115431831049
-4.158815714608058
-4.50838752237063
-4.622993416905408
-4.550958403261598
-4.450777349074355
-3.1149723476577096
-2.412696610260048
-3.804053560320916
-4.1385384091710735
-4.6164554538776095
-4.5048399355033055
-4.621838994860714
-4.683515765731747
-4.754720244984701
-4.435450658976851
-4.79586749925559
-4.686748024975247
-4.729368450335546
-4.541658462404545
-4.791868888738368
-4.813934424506627
-2.39034090669869
-2.7163496490510064
-3.3161695978922614
-4.073808964219162
-4.950310047574611
-4.9528920923238555
-4.949959232896398
-4.950409773910779
-4.936360210594744
-2.4727137421661145
-3.317404011761591
-2.87134533733868
-3.7465753635276866
-3.470545115639726
-1.6083525644264418
-4.94829252484567
-4.9276458670138945
-4.938197265702855
-4.9450322145208
-4.941701404007518
-4.937917014835324
-4.946826111389416
-4.790834726579603
-4.643983603178666
-4.734207220522385
-4.6835756824407095
-4.909666824993642
-4.890703529189361
-4.849423557977576
-4.815833247343014
-4.894475636216378
-4.471107703432744
-4.579349426281921
-4.246266466378444
-3.222226130708651
-3.8705314622531435
-4.420223496144225
-4.540112218697254
-4.7478314566695206
-4.6447613842273165
-4.774576420817516
-4.387357380337391
-4.689848233775826
-4.588271282103251
-4.7202059057967665
-4.784624251451127
-4.22146499369843
-3.21487768377148
-3.385094761665176
-3.8131542951409894
-3.7025282512562243
-4.941388382273268
-4.9444450811140905
-4.94725457255021
-4.943377527732722
-4.951169570497145
-4.946344272116771
-4.946160911503662
-4.9305534405282865
-4.929198190178553
-4.921701311907722
-4.658939244461011
-4.677823247061487
-2.3726385199487283
-3.068973224476466
-4.126380438945904
-4.312946428552947
-3.816032259811351
-3.4248451544127163
-2.302724113042942
-4.935926712867583
-4.939191475836314
-4.92765147849081
-4.90122222470069
-4.9130822487810795
-4.918146552295969
-4.741652556862156
-4.630420023637744
-4.683504449648055
-4.840149309757478
-4.768655512388481
-4.857047604639922
-4.569246918724672
-4.11571138769422
-3.7165299732085413
-4.345595702764888
-4.524342511060521
-4.663645107527366
-4.744456862609316
-4.560333841493468
-4.522874855232259
-4.779030701563905
-4.661154941020642
-4.803713807015715
-4.351814047904085
-4.138834704708892
-3.7937120255293766
-3.9150923833606166
-3.98929153818721
-3.9455926609984973
-4.860340135791087
-4.94290918486499
-4.929449966478791
-4.915505390527109
-4.912672466786751
-4.9281044028032275
-4.924505174414031
-4.9053628457276774
-4.903171174518335
-4.532265451748095
-4.346568583261683
-4.502543580895189
-4.729775664413556
-4.786801440435613
-4.571758859772217
-4.843379618083424
-4.7930254922750954
-4.830759801658593
-2.987528655863361
-3.969190990656727
-3.544551572369362
-2.7976844726680326
-4.890532890167578
-4.848436825346654
-4.628952180115191
-4.744656342272427
-4.099096498407291
-4.399413532227123
-4.751839430809171
-4.647789069266806
-4.517348277513651
-4.5219118326528855
-4.693434718286601
-4.78486998303755
-4.356344200614487
-4.197002873227044
-4.094581083980516
-4.159004083162482
-4.147785885771196
-4.863517141849871
-4.808212875073367
-4.822835946759642
-4.93774715030085
-4.939375231879431
-4.913639832622162
-4.880930179682301
-4.848922161143127
-4.8906591021454275
-4.8663164522433
-4.164733467743866
-4.384892887239055
-4.653517737819286
-4.468972566101982
-4.7347158374674985
-3.5509092690456785
-3.079960585043407
-4.765483420889162
-4.778731073211298
-4.3508975512398065
-4.6639004879827555
-4.538093963844348
-4.544899711016491
-4.692524256213537
-4.7918437021365285
-4.391819717709331
-4.355253361876373
-4.345629607842838
-4.929611648318409
-4.824366849818042
-4.755930224565323
-4.833437422170193
-4.871636029682116
-4.872917395530801
-4.887744382671731
-4.9054903301918
-4.907281502853578
-4.882115694072446
-4.794989990743711
-4.834986391099936
-4.196585770624165
-4.520040682367476
-4.63449100084332
-4.903802267308074
-4.746253361409756
-4.505472857138764
-4.653194793761906
-4.539213150515706
-4.601755626648518
-4.731128242388908
-4.81434687713646
-4.53034653831321
-4.498300389173871
-4.926062005422293
-4.901487335360798
-4.929017676371339
-4.700527497057657
-4.7965967996408745
-4.825424367193111
-4.867336507849352
-4.847336175421421
-4.759486790161529
-4.44719890102385
-4.646397808354989
-4.870007945022386
-4.9061093413939
-4.759173410840209
-4.6653589149758306
-4.650620007250672
-4.683448300725985
-4.790190971674302
-4.6747262355224075
-4.8802543089291825
-4.914717693393467
-4.9222366129068815
-4.713435481649802
-4.817205990473776
-4.770321138197361
-4.633461876296809
-4.845760298622294
-4.889512149824429
-4.920542727618311
-4.789276156523214
-4.754586209471594
-4.763869292316257
-4.77177741207998
-4.800417107900013
-4.873474302846609
-4.913959450080981
-4.783323647063761
-4.7951369969651045
-4.871694328613079
-4.845050955315289
-4.89655026149354
-4.9192983727726665
-4.885992448810398
-4.83972936349335
-4.88435979772746
-4.918770201254211
-4.901736696591088
-4.919137025087268
1.9628242560576254
1.8608466119595248
2.092917082024902
1.8269251684880754
1.9811362949043534
1.7999095509078242
1.8454568140288614
1.8305446097610347
1.832258806342945
1.9212215506674382
1.8354498224568636
1.913223146617751
3.289527451189771
2.4733098103618
2.415705031410957
2.3686589406791176
</DataArray>
</PointData>
<CellData/>
<Points>
<DataArray type="Float64" NumberOfComponents="3" Format="ascii">
0.7551005504024197 0.5086014176501535 0
0.7586015233732781 0.5051003721098511 0
0.7597840581065125 0.5092473667604305 0
0.75 0.51 0
0.7550017913533094 0.5143303282793013 0
0.76 0.5 0
0.7645502232995826 0.5040054832798575 0
0.7413985823672623 0.5051005504317895 0
0.7448996278936908 0.5086015233753786 0
0.7403515548918573 0.511332614508547 0
0.746526471849691 0.5146853841681445 0
0.7448994495790905 0.4913985823608105 0
0.7413984766350891 0.4948996278760376 0
0.7383822662240119 0.49027279294546317 0
0.7586014176469393 0.4948994495921596 0
0.7632951737745655 0.49582217870225065 0
0.74 0.5 0
0.735565217546696 0.5053559092564018 0
0.7347151395853053 0.49717340176481095 0
0.75 0.49 0
0.7447792152420515 0.48504503377071506 0
0.7551003721042814 0.49139847662341907 0
0.7600369881358848 0.4893862147520096 0
0.7541361326388228 0.4842475596116865 0
1 0.5019078811515365 0
1 0.6227436469909415 0
0.8931197204161168 0.5644630257032242 0
1 0.7467796280823625 0
0.8921856252532911 0.6930504636643608 0
1 0.3803655770320935 0
0.8880212120014775 0.44735011286471593 0
1 0 0
1 0.1271905005482471 0
0.912034657103278 0.08053921173678216 0
0.875 0 0
1 0.8728102417515242 0
0.904451760017591 0.80884015298562 0
1 1 0
0.9163700235950584 0.9127085540448441 0
0.8750000000000006 1 0
1 0.2543788633128852 0
0.9014331867418851 0.32520441147051016 0
0.877969993453714 0.1898163455760961 0
0.75 0 0
0.8072033198466582 0.08568945459944921 0
0.255 0.6754626106651982 0
0.255 0.6667666957045327 0
0.2628883332582094 0.6709971412231498 0
0.255 0.658430693667539 0
0.26330298534923924 0.6627717114055468 0
0.255 0.6845339780506111 0
0.26343217870714764 0.6804515219753138 0
0.255 0.6939970082910578 0
0.2641894384678168 0.6888448263261274 0
0.255 0.7038686117138903 0
0.26423292375172797 0.698179369535723 0
0.255 0.7141664287620878 0
0.2650022736525208 0.7088998649285562 0
0.255 0.724908861517527 0
0.26610649277833365 0.7189736266229678 0
0.7500000000000004 1 0
0.8023985937234995 0.8818924605466625 0
0.255 0.7361151065852943 0
0.2657780555607293 0.730739975235941 0
0.255 0.7478051893978007 0
0.26358080359005176 0.7415673491084322 0
0.255 0.5728720170799535 0
0.255 0.5659318249771016 0
0.2614028795804655 0.5697159281858646 0
0.25 0.5694444444444433 0
0.625 0 0
0.6857649948768941 0.09531350584506121 0
0.255 0.650439708213439 0
0.26293824852519093 0.6545309775147379 0
0.255 0.621453361799917 0
0.255 0.6145131696970652 0
0.2620196406451805 0.6181196705907042 0
0.255 0.6283935539027689 0
0.2614852538583466 0.6246124729629938 0
0.255 0.6427794595421623 0
0.2626796511085165 0.6464019152036138 0
0.255 0.635436258876507 0
0.2624713912891599 0.638753075066612 0
0.2615521444061902 0.6322126266846453 0
0.25 0.680555555555554 0
0.25 0.6736111111111096 0
0.25 0.6666666666666652 0
0.25 0.6527777777777763 0
0.25 0.6597222222222208 0
0.25 0.6874999999999984 0
0.25 0.6944444444444429 0
0.25 0.7013888888888873 0
0.2479503229463818 0.6968935226906774 0
0.25 0.7083333333333317 0
0.25 0.7152777777777761 0
0.25 0.7222222222222205 0
0.24803076156986756 0.7184955832966371 0
0.25 0.729166666666665 0
0.25 0.7361111111111094 0
0.25 0.7430555555555538 0
0.25 0.75 0
0.6250000000000003 1 0
0.6748959036155782 0.8955096095992762 0
0.255 0.76 0
0.2508631129603386 0.7566748517247758 0
0.2668004866677933 0.7531294519640133 0
0.255 0.5589916328742497 0
0.2614537306462135 0.562349484083746 0
0.255 0.5520514407713978 0
0.26171608436175375 0.5556666809553956 0
0.255 0.5451112486685458 0
0.2613762876627013 0.5490865659244961 0
0.255 0.5798122091828055 0
0.26162273587492846 0.576386060152523 0
0.255 0.5867524012856573 0
0.2611060249519396 0.5831904995892225 0
0.255 0.5936925933885093 0
0.2612268882158899 0.5902255585750278 0
0.255 0.6075729775942131 0
0.2617888293452766 0.6108494146144402 0
0.255 0.6006327854913612 0
0.2616048629752171 0.6036833042276945 0
0.26158506580188484 0.5966875970882598 0
0.25 0.5763888888888877 0
0.25 0.6111111111111098 0
0.25 0.54861111111111 0
0.25 0.5555555555555545 0
0.25 0.5624999999999989 0
0.245 0.5659318249770987 0
0.245 0.572872017079951 0
0.255 0.2638848934147059 0
0.255 0.2521948106021994 0
0.2655571858132638 0.2569516191419087 0
0.255 0.285833571237913 0
0.255 0.2750911384824736 0
0.26611930962868025 0.2800289679564585 0
0.2656270210957122 0.2691678295821723 0
0.25199485192923265 0.28245433895961664 0
0.255 0.2961313882861103 0
0.26494592025768093 0.2906517416146679 0
0.25197736207130456 0.28708882648079675 0
0.255 0.30600299170894313 0
0.26461806035697927 0.3010525524319125 0
0.255 0.3154660219493901 0
0.26470014310885714 0.3104533342401016 0
0.255 0.32453738933480286 0
0.2637420397861954 0.3202859349517309 0
0.255 0.33323330429546816 0
0.2635313741662418 0.329345341327099 0
0.255 0.3415693063324623 0
0.26325051780878345 0.33792860472859526 0
0.255 0.34956029178656267 0
0.26296182499398935 0.346299164360103 0
0.255 0.24 0
0.26683502118967695 0.24225575454050588 0
0.25 0.25 0
0.5 0 0
0.5710364732926474 0.10354773873596787 0
0.25 0.6458333333333319 0
0.25 0.6180555555555542 0
0.25 0.6249999999999987 0
0.25 0.6319444444444431 0
0.25 0.6388888888888875 0
0.245 0.6845339780506111 0
0.245 0.6754626106651982 0
0.245 0.6504397082134387 0
0.24500000000000002 0.6667666957045331 0
0.245 0.6584306936675389 0
0.245 0.693997008291058 0
0.245 0.7038686117138907 0
0.24499999999999997 0.7141664287620879 0
0.245 0.7249088615175272 0
0.245 0.7361151065852948 0
0.245 0.76 0
0.245 0.7478051893978012 0
0.5000000000000002 1 0
0.557039205706026 0.8917672478686806 0
0.255 0.3572205404578391 0
0.2617912130774236 0.35361076262448843 0
0.255 0.5381710565656939 0
0.2612610220594145 0.5416896183403191 0
0.255 0.531230864462842 0
0.26167275468886225 0.5349401578328602 0
0.25 0.5416666666666656 0
0.25 0.5833333333333321 0
0.25 0.5902777777777766 0
0.25 0.597222222222221 0
0.25 0.6041666666666654 0
0.245 0.5798122091828031 0
0.245 0.6145131696970642 0
0.245 0.6075729775942119 0
0.24500000000000002 0.545111248668542 0
0.245 0.5520514407713942 0
0.245 0.5589916328742464 0
0.2393406008608782 0.562345016712464 0
0.23925081448455277 0.5687881621589708 0
0.23872945600253942 0.5750454444095529 0
0.25 0.2569444444444444 0
0.25 0.26388888888888884 0
0.25 0.2916666666666665 0
0.25 0.2847222222222221 0
0.25 0.2777777777777777 0
0.25 0.27083333333333326 0
0.24800599674489643 0.28150041162724804 0
0.25 0.29861111111111094 0
0.25 0.30555555555555536 0
0.25 0.3124999999999998 0
0.25 0.3194444444444442 0
0.25 0.3263888888888886 0
0.25 0.33333333333333304 0
0.25 0.34027777777777746 0
0.25 0.3541666666666663 0
0.25 0.3472222222222219 0
0.245 0.2521948106021994 0
0.245 0.24 0
0.375 0 0
0.4521003719157306 0.11675722441104824 0
0.245 0.6427794595421621 0
0.245 0.6214533617999165 0
0.24500000000000002 0.6283935539027687 0
0.245 0.6354362588765066 0
0.23796413058840804 0.6877795215236684 0
0.23830139885813442 0.6791733019342857 0
0.23849312075325305 0.6470977379050701 0
0.23861092277688487 0.6705935951005829 0
0.2388297081794626 0.654810247407681 0
0.23881453524105636 0.6625889349979731 0
0.23209329666223064 0.7533866374443701 0
0.23732401922295754 0.6966523208432558 0
0.23575593931851202 0.7063081026450776 0
0.2337659819387652 0.7170863566564766 0
0.23200567396936722 0.7292069995039534 0
0.23238560909979006 0.7411139775435425 0
0.3750000000000001 1 0
0.4469137663178803 0.890953686890467 0
0.255 0.52429067235999 0
0.26138286536899513 0.5282367492322231 0
0.255 0.3645637411234947 0
0.2612343494015386 0.3613394309343041 0
0.25 0.3611111111111107 0
0.255 0.3716064460972481 0
0.26142266268770653 0.3683259182678486 0
0.255 0.3785466382001 0
0.2609825579755623 0.3750345994257721 0
0.255 0.3854868303029519 0
0.2609070270606783 0.3819066734978769 0
0.25 0.5347222222222212 0
0.25 0.5277777777777768 0
0.245 0.5381710565656898 0
0.245 0.5867524012856553 0
0.245 0.5936925933885076 0
0.245 0.6006327854913598 0
0.23809224642703922 0.5816156501770368 0
0.2385308763283559 0.6172439075328885 0
0.23831903922516243 0.610725940442743 0
0.23801168290691652 0.603933067286545 0
0.23880213358008018 0.5426108479486424 0
0.2388748355594208 0.5491686489828262 0
0.23913587950874116 0.5557886812538427 0
0.245 0.29613138828611 0
0.245 0.26388489341470567 0
0.245 0.2858335712379127 0
0.245 0.27509113848247324 0
0.245 0.3060029917089427 0
0.245 0.31546602194938966 0
0.245 0.3245373893348025 0
0.23605348522232614 0.30167456371618834 0
0.245 0.3332333042954678 0
0.245 0.3415693063324619 0
0.245 0.3572205404578386 0
0.245 0.3495602917865621 0
0.23420273880125678 0.2568260425458219 0
0.23361947680743506 0.24342344643523456 0
0.25 0 0
0.35027942537888634 0.09897892487412019 0
0.23792656844382654 0.6392116963703587 0
0.23788172416182918 0.6248044823452092 0
0.23710359663904756 0.6317083974758774 0
0.25000000000000006 1 0
0.31895968988408896 0.8917820179797501 0
0.255 0.3924270224058038 0
0.26135834386529033 0.38853044277437676 0
0.255 0.517350480257138 0
0.2615955168855759 0.5206586373573606 0
0.25 0.5208333333333324 0
0.25 0.36805555555555514 0
0.245 0.3645637411234943 0
0.25 0.37499999999999956 0
0.25 0.381944444444444 0
0.25 0.3888888888888884 0
0.245 0.5312308644628375 0
0.245 0.5242906723599854 0
0.23930577052855317 0.5360130490435305 0
0.2362367683445346 0.588537567019765 0
0.23688755473994377 0.5963684542679362 0
0.2352011517626634 0.29127291123150806 0
0.23339715219811297 0.26853757716277493 0
0.23301020447448145 0.2799522754656204 0
0.2361565777745797 0.31145314275942987 0
0.23945380729060572 0.3195885280303468 0
0.23737381619088155 0.3276806536172742 0
0.23894114677842854 0.36065683684718924 0
0.2375775039378986 0.33686409093177644 0
0.23813145707019717 0.34517963463523355 0
0.23848938411415832 0.3533419426976903 0
0.125 0 0
0.16571134339454174 0.09650057318745703 0
0 0 0
0.07757877304158134 0.07747039595016919 0
0.12500000000000003 1 0
0.18364805548647362 0.9015598502978759 0
0 1 0
0.08217811732064938 0.9179142265991542 0
0 0.8746984589008249 0
0.255 0.3993672145086557 0
0.26118930605670326 0.3954054538209139 0
0.25 0.3958333333333328 0
0.255 0.5104102881542861 0
0.2621355363950163 0.5140660074882069 0
0.25 0.513888888888888 0
0.245 0.5173504802571331 0
0.245 0.37160644609723703 0
0.23870888798403989 0.3678047260059842 0
0.245 0.37854663820008927 0
0.245 0.38548683030294145 0
0.245 0.39242702240579364 0
0.23851534178520087 0.5292423428108708 0
0.23841248814359473 0.5224310733529388 0
0 0.12530154109913982 0
0 0.7496392686871974 0
0.10011834568562811 0.8219572323275695 0
0.245 0.3993672145086458 0
0.255 0.4063074066115076 0
0.26154872268733453 0.40285700957781057 0
0.25 0.40277777777777724 0
0.25 0.5069444444444435 0
0.255 0.5034700960514342 0
0.26163880832129904 0.5071838602049874 0
0.245 0.5104102881542809 0
0.23788027968538736 0.5152837913810124 0
0.23726894470308812 0.37520827060157946 0
0.2360145973728568 0.38234302116135693 0
0.2367276358291949 0.3898274450222347 0
0.23750885584544054 0.39717152802741174 0
0 0.25036073131279435 0
0.0880438061631233 0.16035934513056577 0
0 0.6248196343435967 0
0.10077863089020724 0.6899682576236804 0
0.245 0.5034700960514287 0
0.245 0.406307406611498 0
0.23785609242786718 0.40439188503416834 0
0.255 0.41324759871435945 0
0.26199581982799874 0.40951017323955363 0
0.25 0.40972222222222165 0
0.25 0.4999999999999991 0
0.255 0.4965299039485823 0
0.2613947133176019 0.49977042753543355 0
0.23729630161473061 0.5081577419051156 0
0 0.3751803656563951 0
0.09864189045262448 0.3203467363254631 0
0 0.4999999999999959 0
0.1055374022043005 0.5589151320056648 0
0.245 0.49652990394857643 0
0.2372191486663055 0.5008566430869448 0
0.245 0.41324759871435024 0
0.2385976664123407 0.41113167151673163 0
0.255 0.42018779081721136 0
0.2617004304842611 0.4158962020710919 0
0.25 0.4166666666666661 0
0.25 0.4930555555555547 0
0.255 0.4895897118457304 0
0.2617890511050839 0.4926777556990573 0
0.07995778657637087 0.43342446673763324 0
0.245 0.4895897118457243 0
0.23701706991205962 0.4934361231335332 0
0.245 0.42018779081720237 0
0.2388791312875484 0.4176593922260663 0
0.255 0.42712798292006326 0
0.26178739959219116 0.42311371008341087 0
0.25 0.4236111111111105 0
0.25 0.4861111111111103 0
0.255 0.4826495197428785 0
0.2611489302886336 0.4860523009231177 0
0.245 0.48264951974287207 0
0.23674377164682173 0.48621079069966705 0
0.245 0.4271279829200546 0
0.23867495484973844 0.4237745823211239 0
0.255 0.43406817502291517 0
0.26210045526615056 0.43006331952987153 0
0.25 0.4305555555555549 0
0.25 0.47916666666666585 0
0.255 0.4757093276400266 0
0.2609558045058382 0.47908331202425897 0
0.245 0.47570932764001994 0
0.23683207850059407 0.479109854844825 0
0.245 0.43406817502290673 0
0.23893876655948615 0.43028105652713505 0
0.255 0.4410083671257671 0