<?xml version="1.0" encoding="UTF-8"?>
<VTKFile type="UnstructuredGrid" version="0.1" byte_order="LittleEndian">
<UnstructuredGrid>
<Piece NumberOfPoints="1017" NumberOfCells="1924">
<PointData>
<DataArray type="Float64" Name="Color" Format="ascii">
-0.48904608970340174
0
-0.33030326288633344
0
-0.9740767604824253
-0.7334374569903374
0
-0.4295624976345676
0
-0.40130014310529744
-1.4506935260316862
-1.2118980415555887
0
-0.4037397889661904
0
-0.4036910591139909
-1.9128713572286316
-1.6876299118977054
0
-0.40308168189553223
-2.3528626649541162
-2.144305758894273
0
-0.396484454026706
0
-0.38101834639194493
-2.762127698339118
-2.573669877507703
0
-0.3556698211922533
-3.1325483088394592
-2.9669063719317914
0
-0.32527975702683604
-3.457984333101361
-3.3168034098516697
0
-0.29244251022056095
-3.73552670451646
-3.617429885768692
-3.9657400380714205
-3.8690241706753796
0
-0.25458600049055197
-4.1518079616518015
-4.075180201507627
-4.298313801903493
-4.239532439379578
0
-0.2151737851723989
0
-0.17417501412142092
-4.4101046757796025
-4.366620868027552
-4.491563150513534
-4.461511036072671
-4.5462995234071935
-4.528552710057654
0
-0.1322844657194329
0
-0.09014698579550905
0
-0.0483634541385096
-4.576818709168468
-4.570554188249987
0
-0.008756439885926908
-5
-5
-4.430601016046219
-4.238633686204288
-4.584578102234949
-4.589698084360595
-4.569797515413805
-4.586767737647073
0
0.02599984977313052
0
0.052742525763937176
-5
-4.633778669533456
-4.439700300556397
-5
-4.736388138250711
-4.5312455535719565
-4.561467917593006
-4.465653086756728
-4.511923017259445
0
0.06911862104487276
-4.538634923496171
-5
-4.799376155591883
-4.598740666222361
-4.366285452208818
-4.434377783071377
0
0.07479991660095071
0
0.07213331937920646
-5
-4.8419786564391964
-4.6401145919178495
-4.22118812185435
-4.3186193451246515
-4.009677994932914
-4.1489869500829535
0
0.06455822812605244
0
0.05483682209169633
-5
-4.872115784510911
-4.67070929233622
-5
-4.893703783294267
-3.696588056327053
-3.9033432956378857
-3.212023973840045
-3.5659262849939597
0
0.04641726658036672
0
0.03791849524680633
-4.6943202692001575
-5
-4.90890750643855
-4.712886028257384
-5
-4.919004036689308
-2.4761794719118524
-3.0141380916567404
-1.2952304883275803
-2.2322179235124455
0.056868841647709605
-4.727339435071019
-5
-4.9246914684079135
-4.738295789411446
-5
-4.9262150059630665
-5
-4.923233514663528
-1.6149483730172525
0.1086805582761839
0.08698591488614492
-4.745442345356202
-4.748133228544103
-5
-4.913943961910049
-4.744840350957836
-2.5422072169255103
-2.73376526680492
0.1498610629243091
0.13789694826796703
-5
-4.891229198025321
-4.732427808440253
-3.8447492959905794
-3.5351180356427663
0.17303664595602716
0.1718064897185875
-5.24837742646743
-4.481923718579631
0.17053018335430478
0.1852856531690246
-6.448687816303656
-5.39495006667644
0.13505611269393494
0.16916443052410654
-7.1791843435332465
-6.072518079357965
0.061750350390304194
0.11591038846815527
-7.266290063288959
-6.347656404987006
-0.04951796064514785
0.022499242368302346
-6.674408686990464
-6.145457655555242
-0.19386383888498485
-0.10851784796577481
-5.5117603724387765
-5.493239156709382
-0.362795178967181
-0.26946381627363675
-4.004637677792722
-4.5137066722773715
-0.5464989625768328
-0.45015664538860317
-2.45125704184908
-3.3943732939691986
-0.7358307078347787
-0.6404598732774183
-1.1572005593613626
-2.3475278053373967
-0.9233255391275127
-0.8318336995113861
-0.37138427973077115
-1.5692066036603263
-1.103339655327774
-1.0177773021515089
-0.2348514441266003
-1.2012452717810342
-1.27170568071807
-1.193589435138488
-0.750388675802136
-1.2943027636516857
-1.4252012717859561
-1.355836051249219
-1.7817734407886918
-1.8001029925483725
-1.5609624844691432
-1.5017492401386823
-3.08398185980813
-2.5846225325697447
-1.6758481929743627
-1.6286327039217554
-4.3556262992348564
-3.455416400549804
-1.765681285622884
-1.733208552973797
-5.303250131351147
-4.20344531788328
-1.8242334676345944
-1.8107989573580403
-5.70406985091122
-4.648215937557084
-1.8417526465098364
-1.8541775885338112
-5.453478653978297
-4.675249005706054
-1.8027147589850478
-1.851901190684572
-4.588363583352763
-4.265549029380598
-1.6822719290727097
-1.7855443423309099
-3.278790970520087
-3.492397614912521
-1.4409084848630844
-1.6255890257900647
-1.7895759221018526
-2.511824934682405
-1.0142633029903156
-1.3255994132703286
-0.4302053430585382
-1.53347734775676
-0.311084549824969
-0.8062019184492241
0.5158193496038254
-0.7397808204653697
0.8624733757403824
-0.10274815268601331
-0.9642779182913178
-0.7647751679014961
-0.8123190197621587
-1.4562177276019617
-1.2269569191625802
-0.8051086327031275
-1.2076605593657348
-0.8091931582380424
-1.9429775294505773
-1.769399474717267
-1.5873626305779645
-1.2123492193147491
-1.647371599254701
-0.8084898887012307
-1.223896978123429
-2.3892582109374945
-2.206312624467117
-2.091205110404856
-1.6441917809553266
-1.987199358982668
-0.7889718489069865
-1.2254654780474494
-1.6613203386141635
-0.7447143498813187
-2.8141740086649136
-2.6633161648952552
-2.5475133650158317
-2.5938210657287692
-2.4044231517578614
-2.1530701339866156
-2.0670709783174126
-1.177145827793021
-1.6938570631297856
-1.0854839093679105
-0.6843278964887832
-3.191289859421259
-3.0845282675858443
-2.9987154493526336
-2.95027880955547
-2.8930207639523213
-2.7431681226082727
-2.5346061076628437
-2.2412419451552448
-1.526194544508255
-1.9545791471758593
-0.6210359805334601
-1.3923631227187643
-0.9852596284807581
-3.5176319980502555
-3.442372257914298
-3.3886122672544654
-3.3603237548902665
-3.3504191756049715
-3.316087634179716
-3.1599249698660112
-2.8205291223770765
-2.3829743321843164
-1.9145358601320623
-1.6727651832339934
-0.5503892905593853
-0.8870601683164819
-1.3080676189088194
-3.792793019292789
-3.73955859924274
-3.712538293028461
-3.7174418225259402
-4.017494138860131
-3.756303710349499
-0.4724424251557961
-3.8297031398189456
-3.9096392396936115
-3.610942962391022
-2.9903714693524086
-2.463897202363565
-2.0464606467591016
-1.693077764291213
-0.7711185763576851
-1.1069785187081376
-1.4275353937390423
-3.9818832605253616
-3.9736896629323404
-3.998341286924442
-4.065958169731583
-4.19559752989652
-4.1745981786169635
-4.336564241123324
-0.39091287783529477
-0.30714916858234975
-4.19469847111258
-0.6514595357243578
-3.7097436684901948
-2.9993729701986775
-2.4732625610750123
-2.047172797513228
-1.6836657720962391
-0.953756440553048
-1.3202680786164087
-4.1772282381204215
-4.211032756404324
-4.285400664732414
-4.416322022404508
-4.324593079504612
-4.33402541140248
-4.442896237056899
-4.439094377659838
-4.520227860135509
-4.572269307043946
-0.22254514128672662
-0.13760340470319887
-0.05432283978380076
-0.5245875643933703
-0.39793405740931537
-0.785745995246682
-3.484476709117946
-2.889924325458758
-2.404385008535756
-1.9922711649576696
-1.629118260819512
-1.0879838472100969
-1.3673531309367373
-4.370455885709937
-4.441414184757883
-4.557904506050526
-4.453250947891276
-4.489792704615817
-4.523893802456317
-4.542159735250661
-4.583432090968312
-4.601584290855761
-4.620955998858185
0.02282495411271764
-0.26989986650421866
-0.14083989928440446
-0.014936977178611097
-0.6160505434566311
-0.4470481635936525
-0.8807149317587358
-3.825196703613018
-3.2438894137376058
-2.734884530676012
-2.290907833336084
-1.8985487422223286
-1.5497108361931369
-1.200785495108697
-4.554390159248175
-4.654419651813325
-4.578542876961605
-4.637095842633115
-4.6062374384404885
-4.643263463205154
-4.6492376880527475
-4.609702361636557
-4.638425842065495
-4.673641521772691
-4.597072989033697
0.08705635455261564
0.1313084166564269
0.0982026617874373
-0.27335257877169855
-0.0963336702082495
0.07539430282056596
-0.6691985592812215
-0.4554085530203333
-0.9339585877291062
-4.030062922175339
-3.510622384168973
-3.016565109627079
-2.563983699228857
-2.1522263989426222
-1.7750739476464956
-1.4297753613030615
-1.1545401228578387
-4.722951400571877
-4.697432218028031
-4.772430916294604
-4.688370446441204
-4.740365841788368
-4.716717391471378
-4.636870124462168
-4.680867079430218
-4.730011374017978
-4.563043824840613
-4.616431673636581
-4.50558387896622
0.1525220794374689
0.1851542887746153
0.2348104322995718
0.22389252353105069
-0.23109398848180382
0.22872801118569994
0.0014867466293904822
-0.687150296753924
-0.42348621853047747
-4.16064563110291
-0.9427413541522881
-3.7013649848813004
-3.242985406232344
-2.802267890316458
-2.38717447962178
-1.9973053741389997
-1.632504346844488
-1.269285800948728
-4.251286398829536
-4.807917341309561
-4.769010745467555
-4.832435039635832
-4.785222909045306
-4.671541947393
-4.7290948049039025
-4.789931021589457
-4.576598566021324
-4.645864560777254
-4.515644743456384
-4.421407412375448
0.1529541338459051
0.13933902824574404
0.24599289895737483
0.3239604471364345
0.3592115651265599
0.413880964420362
-0.14047554044824714
0.47194824191599655
0.16434736564036087
-0.6663350292174167
-0.3539816200096746
-3.8411701667396776
-0.9453005657356649
-3.421223775662891
-3.0040498232428696
-2.598674608232912
-2.207809653545802
-1.8323133968244505
-1.5173461794224867
-1.2429559483564265
-4.3186023507917675
-3.947066937699279
-4.847781382743528
-4.85488988077081
-4.714266750039354
-4.783298570132722
-4.85395234644517
-4.60378908179588
-4.686166349741948
-4.544283328624122
-4.439198222981158
-4.304768252735194
-4.138126003919672
0.09881278273863274
0.12071097001457982
0.22878226691022
0.19387090664137885
0.3403280894372167
0.5068964314345008
0.49192876520998546
0.6945945382950643
-2.8943690200308264E-4
0.8747792575247172
0.41181453038925825
-0.6224394157402932
-0.2592723916510766
-3.56265270540737
-0.9189424708022994
-3.172995424030469
-2.78570114335507
-2.4043377050457804
-2.0254045102111884
-1.6104127049062245
-1.2071789032391742
-4.370472686998622
-4.030110939432201
-3.676566932561967
-4.7648707265014485
-4.844194266048544
-4.645849448700808
-4.734437343073764
-4.605094619959719
-4.499480435908033
-4.602269610663455
-4.349796819333693
-4.564163450695047
-4.271845826698965
-3.883298935950586
-4.117924976048903
-3.627330699211803
0.13397991244120475
0.17108247052578876
0.29339148400596504
0.24116084084697048
0.41404542018038887
0.6082842053152279
0.7280077818797924
1.1109415158547222
0.18096738439072926
1.6069022339520724
0.7611296902893208
-0.5759740520698812
-0.17133343474160587
-3.314406834878003
-0.914210492682399
-1.196130121360323
-2.9488493572329593
-2.584779334370552
-2.22177538516539
-1.863265978093853
-1.492389414866805
-4.41144049878391
-4.09645633012581
-3.769542107780133
-3.4333585257153767
-4.443830578756315
-4.823137522509178
-4.69810286695662
-4.78643849963654
-4.6715867320344975
-4.659084207175424
-4.450644501405731
-4.5962686296434185
-4.322788826072441
-3.9964481160234437
-3.504596525191704
0.17524615692217438
0.23002009341989785
0.32174764440710074
0.4746294889472729
0.6449935118868088
0.9286036912332712
1.6734724808493493
3.0697278866672426
0.3592860021646666
1.1883998347936242
-0.5639876044039283
-0.15333238912422187
-3.091254263489287
-0.9797400749037264
-1.3568094162571473
-2.745473379396279
-2.401063393668307
-2.0566389583172406
-1.7119936147943908
-4.1497807852243875
-3.846056760767724
-3.5335214690175927
-3.2140990299671803
-4.469196569616277
-4.192557406171242
-4.487520367298834
-4.744612666454042
-4.826836190941612
-4.727810632182785
-4.7538586091463975
-4.691616385372058
-4.598789625357006
-4.439924387288447
-4.1142716443310725
0.2078492304222654
0.26854608485312076
0.36484852613742585
0.50814610371809
0.728820052281857
1.0930129111829785
1.6442577557357259
1.2577257833987618
0.33738159033710163
-0.581330490536356
-0.2598995670082795
-2.8898750455237603
-0.9197357861450034
-1.2543949936519552
-1.5829189812609366
-2.562293634516824
-2.2341461808341836
-1.9071724452678838
-3.9085125723527043
-3.617372924063563
-3.3198582433635875
-3.0161976625276012
-4.225202037614168
-3.9580596428856647
-4.49826862757563
-4.248094558738786
-4.501121172427581
-4.494488610787993
-4.762335532106306
-4.772916990852939
-4.773648481652529
-4.842555495029939
-4.848169888561482
-4.857646993755286
-4.76906374111008
0.21547962930646003
0.27103240450562033
0.3589879768469169
0.4879872349744497
0.6690850664677742
0.8470524988244729
0.7671136003434581
0.3563001197602836
-0.15854447965637095
-0.6119521061649872
-2.7086841474188463
-0.9623314574440656
-1.2001783215370525
-1.4905597606658818
-1.7749597152025751
-2.396767499720724
-2.084505502373464
-3.6859338646962914
-3.408909553131824
-3.1268546359705116
-2.839109758799506
-3.995333316397893
-3.739798606733803
-4.260577245344678
-4.020169277704695
-4.262355911368586
-4.677230959757517
-4.2523900227449625
-4.472101879519481
-4.729855467888419
-4.618539504479415
-4.8078944780502075
-5.001250934524513
-5.168939795349162
-5.324516270680356
0.18641107172164006
0.2262908736072389
0.28705363691777075
0.361963442469877
0.4224658405695076
0.3743056112743027
0.1603408431806321
-0.17925926671175144
-0.5445699885596627
-0.8734047008434224
-2.545982132820047
-1.1894876994592396
-1.395289834697626
-1.6417034658669751
-1.945890796463525
-2.248587860481624
-3.481469688683173
-3.2202008833074394
-2.9543511107809692
-2.6820414548523637
-3.779305565651196
-3.5371467868835
-3.8034333516583803
-4.032493345566556
-4.031761863378052
-4.020151502127223
-4.441628846101057
-4.232677828367078
-4.4365812317561355
-4.63931331800072
-4.728235037796968
-4.945016583907981
-5.2724377050174125
-5.659876736634877
0.11313450350330718
0.12474789488079284
0.14149285874267173
0.14077777961751312
0.08832597641290423
-0.05348993673646607
-0.2866875225323296
-0.5715150680933339
-0.8713605747645045
-1.1715593988890871
-2.402551997124558
-1.480985144110081
-1.8122330041656178
-2.115265720218122
-2.5444413078109718
-3.294819070702332
-3.0521910850524843
-2.8023618212116443
-3.5760214752507324
-3.3500088835640844
-3.5971481932087577
-3.813350882246912
-3.8088993258719994
-3.795155384001298
-3.9985502259070773
-4.206908501068933
-4.242135133704949
-4.470156021047372
-4.72912292003539
-5.1207143444822245
-5.6576006832695205
-0.005186212347432855
-0.028611954667935553
-0.06069724334406349
-0.1246127760085786
-0.23983176572816953
-0.4154961346201716
-0.6396518568859381
-0.8924802762607603
-1.1594710103472845
-1.4332538929373986
-2.2772921841684686
-1.7126619867700084
-2.0054534878914545
-2.4229460801193974
-2.6742678668713116
-3.125245383055564
-2.90148409423286
-3.3857197026925907
-3.176865796772518
-3.400516214755035
-3.5984026329177925
-3.592148276822656
-3.5743907545480984
-3.7666439475654054
-3.9679267137954595
-4.127457579111372
-4.3732556068512
-4.7503693156193085
-5.323026003666368
-0.16146814232889017
-0.21816361769245338
-0.29136490758027694
-0.3961074387776243
-0.5400198825839183
-0.7226294982013354
-0.9349725657986475
-1.1669361762105872
-1.4116210050240499
-1.6625851664677855
-2.1741449370007824
-1.9249904876694262
-2.3330279117154533
-2.5571587081603435
-2.7697180860016544
-2.9681176280874015
-3.207645979693073
-3.021259842131158
-3.2215596779979525
-3.377149600333649
-3.402713961829258
-3.4034731274075782
-3.51373686062076
-3.6790998404076793
-3.7513232585093523
-3.922706947954906
-4.219977488086189
-4.711440007812741
-0.3437967196367051
-0.4263962451611299
-0.5269126563479443
-0.6533057404846426
-0.8081559424411034
-0.9888536721775841
-1.189688999102751
-1.404898782255531
-1.6299414191150674
-1.86446830498302
-2.119561812454691
-2.3040380899915607
-2.4663698550994884
-2.6395143223751933
-2.821519288666522
-2.906295410696445
-3.042690667663313
-3.1947340628511864
-3.0983684910763314
-3.2235671957691374
-3.2441669504385655
-3.2761061275520746
-3.397568177188137
-3.4598215136833343
-3.616005961077301
-3.9313318261221
-0.5397288650830186
-0.6391873153399875
-0.7549349913584287
-0.890965477410731
-1.0477771592310299
-1.2229100432911861
-1.412453167411047
-1.6122763893014238
-1.8183383463522957
-2.0262606914232375
-2.2118738393096784
-2.3858580042416544
-2.5452110472233294
-2.6732633513248345
-2.7658778344784207
-2.8802940959018737
-2.971566477251313
-3.059514634349317
-3.0767913192270444
-3.071434148518868
-3.0686703199732985
-3.0521043098224503
-3.0440312831360465
-3.1251547212860014
-0.7388453926316442
-0.8472766135782325
-0.969749910585492
-1.1082669080925536
-1.2625471758708346
-1.4304475283966018
-1.6086578926326904
-1.7934147634282525
-1.9792333699049356
-2.1579749685698175
-2.3244785479460948
-2.460196942013447
-2.6056523986949975
-2.7376847757642593
-2.8394430722008717
-2.914655226170067
-2.9414603800399846
-2.921536877136923
-2.8586483662178512
-2.7438175347756553
-2.593995628668735
-2.437243808021441
-0.9336294208885222
-1.0451343311467893
-1.1688778653352598
-1.3058591518275622
-1.4554288459823352
-1.7829599517881618
-1.6154647510232714
-1.955162790119079
-2.121853557227615
-2.2810384283231957
-2.4508826024685795
-2.6079170233497426
-2.724175684170787
-2.8071850451533558
-2.8483467170446377
-2.834556654441178
-2.7537404833234187
-2.590634931002406
-2.3353594204762538
-1.9857690798496
-1.1189317220486144
-1.229555760256325
-1.3513537975316667
-1.4847942445351345
-1.6289116976792026
-1.9395822513453125
-1.781561943439811
-2.0990334439531164
-2.255788093955543
-2.37418316617951
-2.5005087871452507
-2.6265738834361803
-2.728588650482273
-2.7939134218816792
-2.8077401284949897
-2.748910352310268
-2.590071465677982
-2.2994187251714866
-1.84439087680453
-1.2913138683933527
-1.3986487941858876
-1.5169162046771927
-1.6462384929084346
-1.7856385625875613
-2.0833955682585983
-1.9321946027092471
-2.2364637874162963
-2.3928261097646444
-2.54251367428104
-2.663161066281362
-2.7605792088583985
-2.81807066088319
-2.8125634249130838
-2.7093200365912833
-2.4625983709137107
-2.0137573773103665
-1.4483265172180133
-1.5511555880529404
-1.6655344732963184
-1.7917560101702925
-1.9282557575554733
-2.2169316586834173
-2.0712431087435736
-2.361245324637516
-2.4801083481592707
-2.5975069016207466
-2.727941867222515
-2.836526574030277
-2.9034666591156006
-2.894902895620456
-2.760802875090858
-2.428572779511667
-1.5879126194754987
-1.6859254986200476
-1.7974149590264172
-1.9226139805758968
-2.3454709438471415
-2.057281903259241
-2.2000808186302474
-2.502283097447465
-2.676718939875703
-2.834476129705067
-2.9767490169907913
-3.0815079083266226
-3.1038515474720962
-2.974015486202546
-1.7078407989562086
-1.801656415149713
-1.9123199844943446
-2.038648158941498
-2.454642112925419
-2.3291114196420364
-2.179681536294693
-2.6051566398926522
-2.7930790079947894
-2.996178555804256
-3.20576424436168
-3.3950312916714505
-3.5089650274441335
-1.805129140764609
-1.896225416405642
-2.0093818415061135
-2.1458774021289613
-2.492603411584906
-2.3048002278033333
-2.7066187033002227
-2.939808570897874
-3.2222670417428074
-3.54988541672942
-3.897332482615529
-1.8753408471084125
-1.9666436248482888
-2.090186314645594
-2.6082531330055643
-2.248290996322798
-2.4330943468078696
-2.809047342746575
-3.1103619325468674
-3.5185393329538113
-4.035157248041464
-1.9115506371919333
-2.008553360167016
-2.1540258222673887
-2.598727559840556
-2.3533861463400467
-2.878798690682411
-3.2906320815204944
-3.878042863840166
-1.9023806522786921
-2.011858298372427
-2.2011213818066833
-2.5028576648513856
-2.8905037393023068
-3.444474921137043
-1.828844473123074
-1.960597959134285
-2.198621489857876
-2.410546322340393
-2.816203855697316
-1.661520063205667
-1.8884968652689909
-2.1240699103131004
-1.3432506207926578
-1.5574029779369993
</DataArray>
</PointData>
<CellData/>
<Points>
<DataArray type="Float64" NumberOfComponents="3" Format="ascii">
0 0.03703703703703703 0
0 0 0
0.024045827164992026 0.02496201205179343 0
0.03703703703703565 0 0
0 0.07407407407407406 0
0.027460246624300477 0.055523503781117645 0
0.07407407407407274 0 0
0.05573185216362401 0.03224951944081249 0
0.11111111111110983 0 0
0.09450868852143486 0.029734837261207066 0
0 0.11111111111111108 0
0.02874031587065898 0.09219179412906243 0
0.14814814814814692 0 0
0.1304184775676709 0.02949849527809545 0
0.185185185185184 0 0
0.16677676215836768 0.029202594338648472 0
0 0.14814814814814808 0
0.029355273898555707 0.12946696052562637 0
0.2222222222222211 0 0
0.20348163251062715 0.029173803633373328 0
0 0.1851851851851851 0
0.028693084071062025 0.16668140132339 0
0.2592592592592582 0 0
0.2405706253167131 0.02921940306057426 0
0.2962962962962953 0 0
0.2775136482429515 0.029247545324856284 0
0 0.2222222222222221 0
0.028252255581180982 0.20384616942080594 0
0.33333333333333237 0 0
0.3146323974332639 0.029172179948712428 0
0 0.2592592592592591 0
0.02806924718625392 0.24093685196497308 0
0.37037037037036946 0 0
0.35157726977326803 0.029227303608049926 0
0 0.29629629629629606 0
0.027989913634636404 0.2780157831301588 0
0.40740740740740655 0 0
0.38854732855570234 0.029517154341389407 0
0 0.33333333333333304 0
0.027963360610537755 0.3149341146943316 0
0 0.37037037037037 0
0.02798106996562724 0.3517671624191861 0
0.44444444444444364 0 0
0.4255933112499837 0.02963080473639479 0
0 0.407407407407407 0
0.027977097858328016 0.38871672287590336 0
0 0.444444444444444 0
0.027967172848330498 0.425742065554826 0
0.48148148148148073 0 0
0.46266624286372476 0.02976803683683754 0
0.5185185185185178 0 0
0.4998184986871255 0.02984418428327736 0
0 0.48148148148148096 0
0.027952507697808816 0.462687052377198 0
0 0.5185185185185179 0
0.027943435596648993 0.49958798033913704 0
0 0.5555555555555549 0
0.02789272776560468 0.5365825238599554 0
0.5555555555555549 0 0
0.5368864804585424 0.02985358577015648 0
0.592592592592592 0 0
0.5739814325178867 0.02987872352180608 0
0.6296296296296291 0 0
0.6110538680168635 0.02985137479259734 0
0 0.5925925925925919 0
0.027908306303028752 0.5734871009826001 0
0.6666666666666662 0 0
0.6481118142583662 0.029810924462932282 0
0.25 0.25 0
0.25 0.2857142857142857 0
0.22190736511271153 0.2683737752430479 0
0.2797671990573847 0.2685248819120371 0
0 0.6296296296296289 0
0.027935038296817285 0.6104675926140498 0
0 0.6666666666666659 0
0.02795155100097342 0.6474475781884655 0
0.7037037037037033 0 0
0.6851714293194314 0.029760168396679013 0
0.7407407407407404 0 0
0.7222372374677759 0.0297082798994637 0
0.25 0.3214285714285714 0
0.22196887896787962 0.3035608164952239 0
0.27954191099498293 0.3037277078093433 0
0.25 0.3571428571428571 0
0.22195459723775415 0.33908463146740714 0
0 0.7037037037037028 0
0.0280193424745657 0.6844255082953169 0
0 0.7407407407407398 0
0.028153862994859623 0.7214234517826856 0
0.7777777777777775 0 0
0.7593087469732653 0.02965881228439833 0
0.27952289423038346 0.33930421792315857 0
0.25 0.3928571428571428 0
0.22193963673898784 0.37476319833181876 0
0.27953241032546633 0.3749835301719249 0
0 0.7777777777777768 0
0.028486550555024456 0.7583332688259019 0
0.8148148148148145 0 0
0.7963420827296475 0.0295553512209651 0
0.8518518518518516 0 0
0.8334509443239205 0.029453265220465933 0
0.25 0.4285714285714285 0
0.2219301360329354 0.4105010713493904 0
0.27954238481735333 0.410696316709421 0
0 0.8148148148148138 0
0.028857763367224384 0.7958140317071551 0
0 0.8518518518518507 0
0.028267851630331187 0.8332585490981426 0
0.8888888888888887 0 0
0.870555818896344 0.02925550506648039 0
0.9259259259259258 0 0
0.9074428257447398 0.028527451480525334 0
0.25 0.4642857142857142 0
0.22192101908131523 0.44626594617254023 0
0.27955415408140355 0.44641547099290757 0
0.25 0.4999999999999999 0
0.22191181756034203 0.4820433395599768 0
0 0.8888888888888877 0
0.029459211019071212 0.8710711373801112 0
0 0.9259259259259247 0
0.02996291327317097 0.9059029513019095 0
0.9629629629629629 0 0
0.9440450176961989 0.02735675996294447 0
1 0 0
0.9748564128440644 0.024030852149589704 0
0.27956284400242415 0.48213597271907666 0
0.25 0.5357142857142856 0
0.22190455434993958 0.517832766513514 0
0.2795629342764333 0.5178545210524631 0
0.25 0.5714285714285713 0
0.22190920303833053 0.5536344434839066 0
0 0.9629629629629617 0
0.03353771100454972 0.9441262839283069 0
0 1 0
0.025466068290409892 0.9760733956776741 0
1 0.03703703703703565 0
0.2795564034528651 0.5535679727357824 0
0.25 0.607142857142857 0
0.2219279055905755 0.589437134896966 0
0.2795202165255127 0.5892781488109952 0
0.25 0.6428571428571426 0
0.22195049170375444 0.6252017937447155 0
0.25 0.6785714285714284 0
0.22194397203420554 0.6608531155185245 0
0.03703703703703703 1 0
1 0.07407407407407274 0
0.9672740835611608 0.0557604637479684 0
0.2794885569655904 0.6249761122757932 0
0.2794757101192827 0.6606753006042942 0
0.25 0.7142857142857142 0
0.221810555067495 0.6962176987169325 0
0.27944538956528814 0.6962305446839409 0
0.07407407407407406 1 0
0.05675559341046271 0.9732777314971018 0
1 0.11111111111110983 0
0.9700344347022177 0.0944733556493164 0
0.25 0.75 0
0.22127565137528582 0.7308534170592762 0
0.278987865762145 0.7313183390775436 0
0.11111111111111108 1 0
0.09217877212707111 0.9708445362691197 0
1 0.14814814814814692 0
0.9699022607871882 0.13052600119554225 0
0.14814814814814808 1 0
0.1289844675337548 0.9700875898127671 0
1 0.185185185185184 0
0.9698341364080918 0.16692633083810038 0
0.1851851851851851 1 0
0.16619867931641666 0.9700652874688781 0
1 0.2222222222222211 0
0.969859325591997 0.2039478968105537 0
0.2222222222222221 1 0
0.20343024278350005 0.9703726992084629 0
1 0.2592592592592582 0
0.9699448291715033 0.24088624770887357 0
0.2592592592592591 1 0
0.24030824444539034 0.9705011664197496 0
1 0.2962962962962953 0
0.9699999025930918 0.27785236873515745 0
0.29629629629629606 1 0
0.2772878659199387 0.9703497380491012 0
1 0.33333333333333237 0
0.9700255783126007 0.3148531178868132 0
0.33333333333333304 1 0
0.3144973302321411 0.9702731539713207 0
1 0.37037037037036946 0
0.9700367566324166 0.35186095305318715 0
0.37037037037037 1 0
0.351578371988072 0.9701566183201296 0
1 0.40740740740740655 0
0.9700376095938168 0.3888808730977007 0
0.407407407407407 1 0
0.3886533153794944 0.9700392981410092 0
1 0.44444444444444364 0
0.9700340881240513 0.42591348648459615 0
0.444444444444444 1 0
0.4257805317478257 0.9699850467568119 0
1 0.48148148148148073 0
0.9700309110864244 0.4629538242968361 0
0.48148148148148096 1 0
0.4629243955530903 0.9700330623759634 0
1 0.5185185185185178 0
0.9700293706209654 0.4999955448964056 0
0.5185185185185179 1 0
0.5000156654826334 0.9700631866330869 0
1 0.5555555555555549 0
0.9700290198161438 0.5370355904154321 0
0.5555555555555549 1 0
0.5370263557406916 0.9700566466755111 0
1 0.592592592592592 0
0.9700295941929921 0.5740742233893404 0
0.5925925925925919 1 0
0.5740451242393425 0.9700407684230316 0
1 0.6296296296296291 0
0.9700327526801599 0.6111122582983717 0
0.6296296296296289 1 0
0.6110643817518723 0.9700217705308356 0
1 0.6666666666666662 0
0.9700399363819464 0.6481507771289615 0
0.6666666666666659 1 0
0.6480662534766417 0.9699986333397774 0
1 0.7037037037037033 0
0.9700534103981163 0.6851907051173152 0
0.7037037037037028 1 0
0.6850391390540812 0.969964795678068 0
1 0.7407407407407404 0
0.970077140773448 0.7222326487088196 0
0.7407407407407398 1 0
0.7219979158625077 0.9699047641125951 0
1 0.7777777777777775 0
0.9701223197837118 0.7592762288474982 0
0.7777777777777768 1 0
0.7588665437386305 0.9697935056496028 0
1 0.8148148148148145 0
0.9701820597913121 0.7963373027276357 0
0.8148148148148138 1 0
0.7956719959421131 0.9696621296668964 0
1 0.8518518518518516 0
0.9702609824805776 0.8334180734219657 0
0.8518518518518507 1 0
0.8325071813415388 0.9695652996001697 0
1 0.8888888888888887 0
0.9704196815484195 0.8704307657839792 0
0.8888888888888877 1 0
0.8691190136203989 0.9695640720041557 0
1 0.9259259259259258 0
0.9710374319150166 0.9072759533168853 0
0.9259259259259247 1 0
0.9048272521616075 0.9695629921571606 0
1 0.9629629629629629 0
0.9721337547523743 0.9438056287019153 0
0.9629629629629617 1 0
0.9431019885578551 0.9664510411947075 0
1 1 0
0.9756493629260421 0.9746281009004493 0
0.05624348499146825 0.07262658501445696 0
0.08257801568561647 0.05697502174845556 0
0.11312594857090685 0.05971949783018715 0
0.059418760398518976 0.1101506684674883 0
0.0914414821575148 0.09122050257681541 0
0.1488086009666752 0.05834829749543102 0
0.13007378770037076 0.08801426722562145 0
0.18461852857190197 0.058194969624991044 0
0.0591218645021279 0.14832801081444671 0
0.09174050156732233 0.13217826380402153 0
0.11761010803926139 0.11643577316415801 0
0.16469110967170852 0.08700057939144579 0
0.1462043322363239 0.11856761791961767 0
0.2213401744347793 0.05850067087829646 0
0.2018434202629894 0.08726645126456667 0
0.05667843271223649 0.1852075821133784 0
0.08884513436507185 0.1662831886527757 0
0.12859043653477512 0.15219821429471392 0
0.18094746710293785 0.11631569703355052 0
0.16361991293347 0.14071720647530334 0
0.2584797941170988 0.058690241981872095 0
0.23904704582934533 0.08845915570440138 0
0.2187904333218747 0.11684836535823391 0
0.2956632133551416 0.058463252411680884 0
0.05607206114989491 0.22284576578545215 0
0.08377783882578438 0.20457363270719978 0
0.1131214252203474 0.1891195387971411 0
0.14212353605688538 0.18634080370831485 0
0.16455658144389623 0.16874924816863035 0
0.1972963505264146 0.14870974142938148 0
0.23195126602986316 0.142850697826719 0
0.27627460329608894 0.0884169657976342 0
0.25670267700226285 0.12142473596391778 0
0.3135840813652723 0.08739538887990816 0
0.332821240171442 0.05821904442091373 0
0.05596966038385085 0.25990240499239237 0
0.08368493221006282 0.24260795351396344 0
0.1111320801167307 0.22676650152980452 0
0.1380391806481338 0.2142047956147211 0
0.16693638960411514 0.20075314168380828 0
0.1958681010268266 0.1845545964596043 0
0.22668039556879202 0.1698046203121113 0
0.255934340033507 0.15517932186621863 0
0.2941433266631355 0.11608622616624042 0
0.2807769347821089 0.1421329068298772 0
0.3697616828254737 0.058694386022301016 0
0.33160244582881204 0.11581433159075687 0
0.35099965887701395 0.08737251289222286 0
0.05593721362717589 0.29676577157370065 0
0.08353390012116142 0.27964356437341537 0
0.11106242862648441 0.2631613153695247 0
0.13843325683947508 0.2479143739614618 0
0.16654801794890747 0.23312056087501543 0
0.19514278224749654 0.2175960375509231 0
0.22459610677024522 0.20171478961277126 0
0.25456222275327217 0.1858597616138469 0