<?xml version="1.0" encoding="UTF-8"?>
<VTKFile type="UnstructuredGrid" version="0.1" byte_order="LittleEndian">
<UnstructuredGrid>
<Piece NumberOfPoints="4771" NumberOfCells="9432">
<PointData>
<DataArray type="Float64" Name="Color" Format="ascii">
-4.531531274151723
-4.56820051307411
-4.561182166148885
-4.991740642442355
-4.991376569609378
-4.980676144520216
-4.99205183798714
-4.981281167387515
-4.992754591474284
-4.9925490235085315
-4.983062803825079
-4.992317093642023
-4.982717651122704
-4.982135009089311
-4.993870565178436
-4.993788403971056
-4.985807382713852
-4.993946551616003
-4.985945468441373
-4.994371016275308
-4.99433223049294
-4.986896108481722
-4.994290132046545
-4.986871539173934
-4.9940161915367405
-4.986324389652382
-4.994080301357479
-4.986479360567524
-4.9942439746510665
-4.986709172641953
-4.994193957334949
-4.986689207852344
-4.994139591541754
-4.986566172542897
-4.986388518309043
-4.581224807415287
-4.585140854646759
-4.468090485828753
-4.5128834762089545
-1.3113599651598504
-2.4920147434450803
-2.2485684448700503
-1.6314876945665027
-4.994358402289149
-4.994389392637
-4.986973671437398
-4.994325366663831
-4.986875761561652
-4.994290462828608
-4.9868136523947575
-4.994253483403324
-4.986766579697373
-4.994214735007881
-4.98680948565178
-4.9941736355351125
-4.986629985158591
-4.994406291469121
-4.986979957006283
-4.994438562406194
-4.9870336832489235
-4.994467803269746
-4.987051043961359
-4.994494151892547
-4.987145633695774
-4.994538799298922
-4.994517768374686
-4.987233134117855
-4.987159545411324
-4.99455725682386
-4.987248574640035
-4.994573217831348
-4.987406457080994
-4.994586833346454
-4.987471531436776
-4.994598198193848
-4.9874618764998795
-4.994614098440395
-4.994607205329117
-4.987471786476871
-4.9875808221655795
-4.994618824768803
-4.98738949129917
-4.99462137399417
-4.987628761617596
-4.99369793760633
-4.985515038238558
-4.993600128764702
-4.985455513476942
-4.993492076050843
-4.985075992273725
-4.9929357120293245
-4.983556004822602
-4.993373713440826
-4.984824912045666
-4.993242663215162
-4.984519630258977
-4.993097609537927
-4.984225120670607
-4.983867715615706
-4.9909067244431355
-4.979163619679233
-5
-5
-5
-5
-5
-5
-5
-5
-5
-5
-5
-5
-5
-5
-5
-5
-5
-5
-5
-4.571646724886334
-4.586511606570801
-4.99413078598246
-4.986624711134964
-4.994085685233745
-4.986363803438681
-4.994038570799588
-4.986182279158748
-4.993989498568326
-4.986093357249079
-4.993938306260628
-4.985933589121719
-4.993884889256905
-4.985814685751475
-4.993829600796012
-4.985715613035182
-4.993771954939863
-4.985511618313844
-4.993712192184568
-4.985295127177434
-4.993650249346431
-4.985304248169424
-4.371319795683701
-4.436601956465956
-4.2290645601882035
-4.3234677580558705
-4.02090701609541
-4.15545622556026
-3.709475288927355
-3.919582895970296
-3.226901784108744
-3.5778787099390783
-3.0294786897698383
-2.5600131034346703
-2.7501728463070774
-4.990288988044658
-4.977082594433713
-4.989454042570004
-4.974315505035237
-4.988168171777388
-4.97123760390197
-4.985916610372677
-4.964778403359952
-4.981399340540776
-4.956455422848953
-4.960986210989994
-4.940608768787107
-4.994621812273604
-4.987913861529826
-4.994620131203177
-4.987842423129762
-4.9946164155588955
-4.987677617238451
-4.994610668012457
-4.987589219883325
-4.99441846480918
-4.98707097349824
-4.994445519910492
-4.987198720530849
-4.994602925637943
-4.987484462231037
-4.994593192513334
-4.987483371345429
-4.994581561674367
-4.987601408056199
-4.994567868496255
-4.987443130215919
-5
-5
-5
-5
-5
-5
-5
-5
-5
-5
-5
-5
-5
-5
-5
-5
-5
-5
-5
-5
-5
-5
-5
-5
-5
-5
-5
-5
-5
-5
-4.982175028713736
-4.981105637414898
-4.9815560042403755
-4.98189259491743
-4.982950814623247
-4.982797356012525
-4.982415066392435
-4.982620682534424
-4.98393459939264
-4.98354974368169
-4.9836131019303105
-4.983668492492002
-4.983717199554545
-4.983759984114059
-4.983925990494172
-4.983914160686758
-4.983879632520527
-4.983898743870544
-4.983796995315511
-4.98382908038521
-4.983856496180668
-4.539092060184441
-4.565732326118876
-4.991659572569861
-4.991780015484676
-4.980694714304721
-4.991896684328811
-4.9811019990880725
-4.992228964181245
-4.99233341811944
-4.982160467628756
-4.992121004515476
-4.981842892141514
-4.9920106319470845
-4.98134925314822
-4.981680538318728
-4.993586553648985
-4.985343127354931
-4.993520112606865
-4.985043772266548
-4.993451523192296
-4.984839719005058
-4.993380544582738
-4.9846867569485225
-4.992435630722642
-4.982327791623448
-4.992534314672759
-4.982715412678694
-4.992630893051921
-4.9828725291417255
-4.992724549773051
-4.983218987864031
-4.992815023486961
-4.983637028926254
-4.9929029908030484
-4.983684154135496
-4.993307320229302
-4.9845227199750815
-4.9932312804585
-4.984333403103194
-4.992988757101693
-4.983713658516027
-4.993072285035993
-4.98376565015795
-4.993152861721701
-4.984170168896346
-4.9842329369402085
-5
-5
-5
-5
-5
-5
-5
-5
-5
-5
-3.8658010068731
-3.5465843966023756
-5
-5
-5
-5
-4.898964508633081
-4.907739624251685
-4.852253964143875
-4.870084223792168
-4.942406299350875
-5
-5
-5
-5
-5
-5
-5
-4.994552280315866
-4.987407100042092
-4.994534844558078
-4.987447413682118
-4.994470660826512
-4.987220171786689
-4.994494053880804
-4.9870933650760385
-4.994515339691415
-4.987328782579104
-4.9872243884687
-5
-5
-5
-5
-5
-5
-4.9832507185837125
-4.983200093241027
-4.983147663969702
-4.983093960617688
-4.983038223408474
-4.982981209868776
-4.982922306177948
-4.982862107232335
-4.98279993706618
-4.983940135054815
-4.9839426488228336
-4.98392610043465
-4.983942376251133
-4.983939454033613
-4.983933924306673
-4.9839157518007715
-4.983903162502425
-4.983831584752193
-4.983888347763043
-4.983871359793361
-4.983852477607879
-4.983808704412997
-4.983784049950603
-4.9833979116002665
-4.983478525751001
-4.983306165996738
-4.983084328020277
-4.983202361481898
-4.980518449101688
-4.960343528800274
-4.960024491101453
-4.956293692270876
-4.957242159466172
-4.960167124463343
-4.960896971935134
-4.9611959711646465
-4.9605415227164285
-4.9600929028924305
-4.962640581932601
-4.961824298199868
-4.961082385751361
-4.961670640826257
-4.961889263206587
-4.962243875807054
-4.962476375674954
-4.962821434941282
-4.963217509716351
-4.962829248879301
-4.962594531261444
-4.962682271287023
-4.96259012992438
-4.96247685352797
-4.481994226704145
-4.521699749672386
-4.991536353376122
-4.980381177073093
-4.991409394360674
-4.980114335665495
-4.9912802037096275
-4.9800637815794895
-4.991146619773399
-4.979622843456553
-4.989943127341284
-4.99010801759383
-4.976819016241834
-4.990268517188146
-4.977161809834808
-4.991009852062278
-4.979299675983994
-4.990425082854652
-4.977589452408233
-4.990869022004568
-4.97893267141925
-4.990576565285621
-4.978121806383673
-4.9907248721059725
-4.978315581929372
-4.978609813698515
-4.9875616886155845
-4.987791017562284
-4.9713492774515124
-4.98801545193801
-4.9717478291344195
-4.989773561955082
-4.97634917602011
-4.989599239231418
-4.975995989837866
-4.988233058685762
-4.97240399485023
-4.988445172436578
-4.972775428457421
-4.988650987710759
-4.9733303623984755
-4.988851337988479
-4.973691542482302
-4.989419722366875
-4.975476972118735
-4.989236001691499
-4.975306178344776
-4.989045898662504
-4.974297160929883
-4.974614684274489
-5
-5
-5
-5
-5
-5
-5
-5
-5
-5
-5
-5
-5
-5
-5
-5
-5
-5
-5
-5
-5
-5
-4.982736254021767
-4.982670739218249
-4.982603561834952
-4.9825345830968395
-4.982463935721026
-4.982391554834897
-4.9823173985608875
-4.982241527149
-4.982163899081308
-4.98208476973571
-5.2728608981861065
-4.492692270984455
-4.979721073616162
-4.978401985018718
-4.842812239307453
-4.976232005864545
-4.889545285260745
-4.951572020723211
-4.9717332268526695
-4.98375730727567
-4.9837287032265545
-4.983698530034014
-4.983666360650509
-5
-5
-5
-5
-4.983299497759952
-4.983346695111284
-4.983632577243875
-4.9835967985578575
-4.983559605587481
-4.983520465268611
-4.962112953484271
-4.961557152021758
-4.96115613968077
-4.961186748480525
-4.960830206778689
-4.960885153013009
-4.960641284907957
-4.960823439410913
-4.960456438773178
-4.960418792528915
-4.962607935060865
-4.962450506537267
-4.9637347423141955
-4.962607177940043
-4.963002360342546
-4.962998681246599
-4.962713848224296
-4.962314836403944
-4.962865635811781
-4.963024816901281
-4.962547474988697
-4.963003877092569
-4.9628325646018245
-4.962095867015122
-4.961620721749724
-4.961827620732123
-4.961459075581069
-4.961133638788893
-4.951412200335253
-4.397712014831832
-4.452102549226525
-4.97776923520766
-4.978365090399122
-4.949045170635002
-4.978931204157864
-4.950647171212288
-4.979473928122899
-4.9517986420174855
-4.979991375428946
-4.953125763475193
-4.980489068858712
-4.954204895858553
-4.981419698858713
-4.981857648793874
-4.957820209345939
-4.980963255930498
-4.955758327186374
-4.9566808848269615
-4.987322030751488
-4.9700135224106825
-4.98707787261477
-4.97010650348373
-4.98682530402501
-4.969615559381553
-4.986565122229815
-4.9691551769106646
-4.98629896945899
-4.968887217518977
-4.986022952663461
-4.9681356226205216
-4.982275028411194
-4.959428151263212
-4.982678891919966
-4.959665768324661
-4.983068124844326
-4.9601681354982565
-4.983445417666695
-4.960481934649117
-4.983808315240892
-4.9617766932774465
-4.984157854895212
-4.962965808257855
-4.984495586547758
-4.963864044945656
-4.98482181206657
-4.964445381166578
-4.985737442052204
-4.9673210462289665
-4.985441372524498
-4.966552420036719
-4.985138047923626
-4.965232343490051
-4.9662867963511
-5
-5
-5
-5
-5
-5
-5
-5
-5
-5
-5
-5
-5
-5
-5
-5
-5
-5
-5
-5
-5
-5
-5
-5
-4.980775080767512
-4.980554618349402
-4.980666097938836
-4.979834729389224
-4.979961279858261
-4.98008461074031
-4.980206390330341
-4.980324461322362
-4.980440948391565
-4.982004028207175
-4.981920960926227
-4.981836541314636
-4.981749551693472
-4.980881929028588
-4.980986362240991
-4.981089204779075
-4.981188896132605
-4.981287650175716
-4.98138380090974
-4.981661483138624
-4.981570672731855
-4.981478222945893
-4.960076476087351
-4.959878411371463
-4.9591685569421555
-4.959516413870767
-4.959155483663131
-4.959109377404459
-4.959235665934988
-4.959338053506379
-4.959464674859414
-4.959193652496634
-6.477585864612917
-5.40422843160048
-4.9460342007711775
-4.941712317135788
-4.8350752952949785
-4.9291229858297525
-4.878001600999841
-4.910139230710176
-4.962343959114926
-4.962144798727419
-4.9620428042656295
-4.961933518918795
-4.983479483752563
-4.983436772635266
-4.983392320136821
-4.962032959838729
-4.961878818906235
-4.961916532755473
-4.962217919517934
-4.961793456077828
-4.961402576220634
-4.282624775778875
-4.353804721847934
-4.977143573985386
-4.947221579598627
-4.97648632411867
-4.945916417675016
-5
-5
-5
-5
-5
-5
-5
-5
-5
-5
-5
-5
-5
-5
-5
-5
-5
-5
-5
-5
-5
-5
-5
-5
-5
-5
-4.979574012041099
-4.979705270356401
-4.979302097310996
-4.979438955751114
-4.978081327073902
-4.978246119383055
-4.978406231211445
-4.978564159599304
-4.978718747728759
-4.979159940550923
-4.978868625524928
-4.979016049739369
-4.975754001868316
-4.975977281851336
-4.976192830947125
-4.976404344683761
-4.976609711479669
-4.977913292606577
-4.977740433391939
-4.976809897330738
-4.977006260855384
-4.977196297855209
-4.977382579749086
-4.977564273922265
-4.9555827150860585
-4.955292411160503
-4.95500325605579
-4.9551200264457895
-4.953504253491309
-4.952945334591301
-4.95421708581662
-4.954200907517843
-4.954918565512032
-4.954728686982659
-4.958827309558317
-4.958726429701024
-4.95812325808111
-4.958209081535617
-4.9559543283421315
-4.956223393002996
-4.957035395657862
-4.956638491324146
-4.956802185660423
-4.95688806011685
-4.9574184753975885
-4.956968016220441
-7.212651595467431
-6.086284231810278
-4.961293268603511
-4.961232132816076
-4.132348195534033
-4.222872036758183
-4.97579186570249
-4.943985014285135
-4.975059195669896
-4.943044894630165
-4.974288213332991
-4.942021063281781
-4.973465886241056
-4.939997265069638
-4.972581884839255
-4.937506009513594
-4.971660154476112
-4.938352416536916
-4.95650438832855
-4.95880187453465
-4.905510503702467
-4.960840548482982
-4.908718787521111
-4.970649950346416
-4.933092851079048
-4.969578541471648
-4.931490135428718
-4.962664134064945
-4.911862063904857
-4.964308839943711
-4.915281060770361
-4.968420806130555
-4.92863823292643
-4.967166868132623
-4.926059137974548
-4.965804107987764
-4.919212499035705
-4.923071582658976
-5
-5
-4.966347602846652
-4.96693046225456
-4.967481237569836
-4.968007131026663
-4.968509305918579
-4.971092064682636
-4.9689877730151855
-4.969444044401922
-4.970704400985668
-4.96988222527212
-4.970301073599113
-4.975526050933495
-4.975290008084621
-4.974798363648438
-4.975048436132314
-4.97427880613533
-4.974543641954305
-4.971463543607602
-4.971819687477832
-4.972165829759941
-4.972499876750695
-4.972822087553589
-4.97313318293248
-4.973433182197102
-4.973724877851282
-4.974006670423226
-4.952203630328232
-4.953080108415327
-4.950501395554009
-4.952118557066147
-4.9493519902093155
-4.949682795667794
-4.950568824277261
-4.950528884594438
-4.9510923309952615
-4.9522266234927335
-4.951456936793747
-4.951766587696176
-4.943764802987336
-4.944124064588291
-4.9451624099395195
-4.945129859517071
-4.945508454330324
-4.945887731166713
-4.948827712354003
-4.948750686821636
-4.946785508016872
-4.945330015328107
-4.947331435755978
-4.947871362925043
-7.3071619660089695
-6.368494724605725
-6.726484302112859
-6.180242227062004
-3.9421621480425553
-4.0544904176061705
-4.953867203999303
-4.9001221141828
-4.9505109344785865
-4.889769362718421
-5
-5
-5
-5
-5
-5
-5
-5
-5
-5
-5
-5
-5
-5
-5
-5
-4.965089087011969
-4.965738479786451
-4.922458825900296
-4.923012360959956
-4.9255199318617455
-4.924352012636091
-4.926379598702316
-4.928029943819799
-4.933749264173333
-4.932328490272113
-4.929073557166226
-4.930066885782055
-4.931735622596373
-4.931334420660957
-4.942965667780615
-4.9427499380857185
-4.942753064075339
-4.942243762188675
-4.94070901571643
-4.941233538729384
-4.935218134120922
-4.935240085674283
-4.9357343509862055
-4.936692027094743
-4.938801933685624
-4.937734826777745
-4.939020009693597
-4.939767216803013
-5.576138947610926
-5.5423383146235
-4.081943378143242
-4.577184855321768
-3.7078359387086137
-3.843450654056241
-4.94629162824855
-4.87937661611933
-4.940944856673867
-4.864649866305803
-4.932503450396383
-4.83527121710079
-4.919649515393014
-4.81171813260539
-5
-5
-5
-4.963671556695999
-4.964404052455078
-4.962901088931203
-4.962071455143865
-4.943937956458954
-4.9465254664227585
-4.948779235050298
-4.960230998903164
-4.961184212161321
-4.9507679039995445
-4.952545851620265
-4.959210058825037
-4.958102132644199
-4.954140203913372
-4.955573610696177
-4.95689332450299
-4.918559978676815
-4.920090108861607
-2.541390601607045
-3.471228021880633
-1.2604479864343805
-2.439821301113142
-3.4267349920105183
-3.585874596367939
-5
-5
-4.896371684233578
-4.757305881712113
-5
-5
-5
-4.960118811146727
-4.936597096301763
-4.9406918311410015
-4.916599278016207
-4.917049604117434
-4.913444544370265
-4.911003459643694
-4.873227154655111
-4.86295147225686
-4.8807537941474415
-4.884876127960221
-4.907770595881408
-4.909300715870001
-4.893278227503977
-4.888821175999599
-4.9046790291727085
-4.901313434186808
-4.898370375079943
-4.899417168500853
-0.48849830344195344
-1.6786771170928236
-0.3658949990368339
-1.3260538069620444
-3.0990104873881426
-3.2800172006751223
-0.4809598655830774
0
-0.3265984908089977
0
-4.814902894203147
-4.6582568820423775
-4.931276450042296
-4.923388953344919
-5
-4.91138156150856
-4.886444485808165
-4.831591904837922
-4.850875356819491
-0.894705801189522
-1.4326310512263627
-1.9387925737652034
-1.9514406992590867
-2.7281397715771853
-2.9277718264127515
-2.3205764179786486
-2.5345453885022895
-1.8844806372238094
-2.1079924386359035
-1.4280339747973023
-1.657433858506436
-0.9583196951353464
-0.7247102808394005
-1.193023790699191
0
-0.42784933527359226
0.6308564817173778
0.28485434617115213
-0.33439002962474673
-0.5433324952659395
-4.454029557405815
-4.480534714530534
-5
-4.174108789658873
-4.243996058808551
-4.8095995555661695
-4.774870064667106
-4.8042366640185685
-4.722117867950726
-4.632838992152963
-3.253075802414958
-2.748231192402144
-4.53600765311269
-3.6305937969129096
0
-0.3908142943319172
-0.659173546554193
-0.9703476678407321
-1.2485204277707813
-1.0389783162761812
-4.444805520330559
-4.164941997524896
-4.442008006483788
-5.49397825892956
-4.389380084458339
-5.904065867295333
-4.843824090428748
-5.661852299761897
-4.87950588707115
-2.0152865361926087
-1.761196219037717
-4.803656984924326
-4.4776511582151715
-3.4999126116493504
-3.7110127408705327
-2.735683673778349
0
-0.40050410534880604
-1.6784799740826462
-1.5609501860135906
-4.208961836864597
0
-0.40760071326899233
-1.9245093298687506
-1.8648889519649696
0
-0.4085492865312436
-2.0509901268445345
-2.0301839457279587
0
-0.4023886350283041
-2.0974483260073447
-2.103253442073832
0
-0.38845583483270557
-2.088749018038461
-2.1136663034961534
0
-0.3662483818681963
-2.0404375825910437
-2.0797962836432133
0
-0.33739895268346304
-1.9622454512037006
-2.0131618743571242
0
-0.30460951055254526
-1.8603440667718807
-1.9209314691168984
0
-0.2699221365188747
-1.7387967250684608
-1.807715128653917
0
-0.23449413216048695
-1.600534444149347
-1.6766532710020463
0
-0.19880661689007925
-1.448057378799535
-1.5302492605445586
0
-0.1630674223495271
-1.283996462379645
-1.3708937404182235
0
-0.12760051104793504
-1.1116006972074755
-1.2014309159514156
0
-0.09317209787017526
0
0
-0.0070060278773951224
-0.011787182340647566
0
-0.06114345325465068
-0.9351684243185847
-1.0254821843447373
0
-0.005762369039184247
-0.027011635910812622
-0.017061907731006177
0
-0.033307793822556414
0
-0.0016625879778821764
0
0.0038169262293605427
0
0.00822616938991863
0
-0.011487513139270792
0
0.002723743388834655
0.008780981477704937
-0.7603374034027967
-0.8477855990231501
-0.049563060678961934
-0.0351297679290677
-0.5939937123551239
-0.6743493287082739
-0.08466886550824444
-0.0611403643005089
-0.443505145946035
-0.5122881248870118
-0.3153780770042554
-0.3706270260303755
-0.2133594464844791
-0.2540125315424655
-0.1375447292727956
-0.16539105792791964
-0.10275232858249528
3.002390534431377
3.001483754257986
2.877341926043767
3.0012007728576955
2.8703572883408603
2.9993114525789664
2.873031755973997
2.9991302663716017
2.8753639962748205
2.9987346820681284
2.8822954603757776
3.003089596553408
2.8880103694205315
3.003996307412278
2.8923911470796497
2.9985766861396943
2.884335430679934
2.998700010106091
2.881513126675408
3.005029486810536
2.891117817268714
3.0053151536102654
2.883469437508589
3.006536236366737
2.8604762238793873
3.005801934612437
2.8553839936776124
3.00653604326574
2.8836809516678357
2.998780285461763
2.8726874943927974
2.9996675619902446
2.868897658274996
3.006395334679174
2.894675958696773
3.006142644040373
2.8970212923051837
3.0058229750010574
2.8993290056041476
2.999192520034527
2.878796368028357
3.000240214839938
2.8861430933839607
3.0049083590914756
2.896904653606702
3.0053508380227307
2.8908871625180907
3.000945925373435
2.890463493346728
3.003926113882234
2.881669456181496
3.0017975319531676
2.891031526224463
3.002951234191457
2.891800284504075
2.884136203004853
-4.947544774788102
-4.944362912588704
-4.930568963568336
-4.948173591743731
-4.934290560835234
-4.9543790633951215
-4.9442149130746165
-4.944805062717349
-4.957515269456904
-4.949139002077295
-4.9602059141509605
-4.96108747433829
-4.9567286305520755
-4.9602679751157766
-4.955250698295275
-4.958355558927013
-4.950959183375857
-4.950358746840096
-4.935054187072549
-4.950200818040984
-4.933968536583575
-4.936036745218037
-4.929872554352255
-4.925936745179395
-4.9159599578629605
-4.909431860537002
-4.9159010803554155
-4.926160116863708
-4.943182401886477
-4.929400943875131
-4.941384239132238
-4.92389306738406
-4.945502685942557
-4.950009272713559
-4.93218527112396
-4.935799663392149
-4.942935716149426
-4.949367108286253
-4.956563324912077
-4.946601426182716
-4.958318445543701
-4.961957728692642
-4.962420287054299
-4.958815781018229
-4.959211006941227
-4.962909017152648
-4.959551328142387
-4.950920440929143
-4.963370728062281
-4.963724948655071
-4.959419224064345
-4.95028452917884
-4.959199162576452
-4.949942664455604
-4.963364116911233
-4.963469945377699
-4.958385431718457
-4.957952822057592
-4.953280095571545
-4.95208579277698
-4.957153188562272
-4.955922570494906
-4.950437836592105
-4.9388113116282994
-4.948135468702752
-4.951622620886039
-4.954575995784307
-4.95776826775382
-4.95582867261204
-4.947614362540659
-4.963184738222053
-4.9646976695463545
-4.967248962795409
-4.970723215767323
-4.96808861487397
-4.97216702172926
-4.966615669451138
-4.97172701170124
-4.965774238083473
-4.97087295354915
-4.9319587050351705
-4.950809813930705
-4.934567445184897
-4.934177328792752
-4.920057726579153
-4.935077722808508
-4.923420868012421
-4.936671539307137
-4.931843775133152
-4.9308987389555385
-4.958168880294746
-4.961724840860338
-4.948625107731334
-4.9578965073133805
-4.949032076795185
-4.948663047390464
-4.9622306594731365
-4.9323307145887725
-4.933285801584005
-4.959529442242527
-4.921618942837554
-4.917184718216654
-4.913345607992176
-4.917076573687699
-4.909351485117039
-4.9104073149484195
-4.897234019140135
-4.897999685003384
-4.8963749855291985
-4.909730873339956
-4.909877262328133
-4.9290104191973825
-4.910401994696664
-4.9408300676156545
-4.965107532156865
-4.959145711244313
-4.963350126729931
-4.933986790961312
-4.950947861027834
-4.9483014569052015
-4.933005235132714
-4.948584991789198
-4.932675786531586
-4.947568729237285
-4.932548318141762
-4.950161746191655
-4.962477080327673
-4.9580064237662524
-4.963261912267172
-4.959689353225547
-4.9643880441516535
-4.967605977964699
-4.972404294553299
-4.9673986395549035
-4.972168158622427
-4.968660664791979
-4.9678007548212015
-4.972680727738919
-4.972988159853734
-4.968212997045286
-4.968471962528153
-4.973207806021143
-4.968794039960752
-4.973361398443356
-4.973735106185281
-4.968817291523095
-4.968845336851715
-4.973560212007686
-4.973810981065868
-4.969091119541745
-4.9696791705398455
-4.963763359387883
-4.962819519974424
-4.96892552670731
-4.967973801282697
-4.961596765801091
-4.959969304147841
-4.964978858206798
-4.966727518347256
-4.9613106439709656
-4.954786323768
-4.97156633051575
-4.970139433617239
-4.972376740822579
-4.974180762490876
-4.976371260817291
-4.9781296598780775
-4.979357483020343
-4.977430096657571
-4.9803865415265705
-4.977772471165856
-4.980146423354499
-4.9778329703897475
-4.980526317916665
-4.955126751413148
-4.944906534939249
-4.955182084713003
-4.959870188520747
-4.945541447602802
-4.952877952774108
-4.957284226185087
-4.943314499569657
-4.942739972011558
-4.953490451420114
-4.954517845219475
-4.959657532754716
-4.945156466642179
-4.958384179398542
-4.944329727197725
-4.917487183466219
-4.922570898221668
-4.919170762242597
-4.918572330953683
-4.91704962328766
-4.91526718842941
-4.916686759203127
-4.90429123359193
-4.910391516271525
-4.9140944241888755
-4.914139244411686
-4.900014217278567
-4.930542804033689
-4.929921874414959
-4.917189261818205
-4.920157453633273
-4.914497880322693
-4.957142704510665
-4.95231508786548
-4.9420361044819066
-4.951325067620744
-4.940791710891152
-4.956463910780342
-4.949584940714594
-4.9552814315199845
-4.950402738555632
-4.953308530940677
-4.9417255269614015
-4.944840098080317
-4.971201623072766
-4.965734908822902
-4.9656476335525594
-4.9711629374043165
-4.970926751677296
-4.965028328530628
-4.964118802633024
-4.970037676108327
-4.963647460848752
-4.969428968637733
-4.924863338804092
-4.898931879925343
-4.895370931642727
-4.892482084730516
-4.887812291033678
-4.889857370496139
-4.879568362100842
-4.871852409080297
-4.88513744095665
-4.907638857120453
-4.888162140857191
-4.954367679218788
-4.9412345114978224
-4.924979160300285
-4.942551568562943
-4.925616861571858
-4.974384936094751
-4.971896740722241
-4.968937446477948
-4.974452344715444
-4.958553820882468
-4.96206743521842
-4.957420701479207
-4.962071777393646
-4.961338596540524
-4.96373241599218
-4.9728043347992
-4.967859700035013
-4.973812370487761
-4.9690389596604225
-4.973853902840652
-4.970677236221813
-4.978285965996925
-4.980498906050107
-4.978073013182123
-4.980364634059704
-4.977977081706945
-4.980693342890747
-4.978481934851588
-4.9808467196091835
-4.978682553630683
-4.97879713328883
-4.981018806459754
-4.98113761417842
-4.979039981799256
-4.9813769868106865
-4.979118241546069
-4.9791930567704545
-4.981416547441716
-4.981447677290178
-4.979372637396259
-4.978614891096827
-4.975704611374366
-4.9780724662409765
-4.975233338923811
-4.975006986822893
-4.977332773678579
-4.974120666339629
-4.972978174413883
-4.976416934520506
-4.967145973286386
-4.943542433204176
-4.93156482140889
-4.941942678344122
-4.948271078717537
-4.930315706812009
-4.940860644402768
-4.946606171744157
-4.928854670466721
-4.939815692530854
-4.946424462327612
-4.92767031289059
-4.937991882599215
-4.944851177110086
-4.926074487585363
-4.923879247378153
-4.925802649148268
-4.927887117011045
-4.92818111212349
-4.925724957255098
-4.926370429829007
-4.927310763518476
-4.924924070372916
-4.947209475298813
-4.953317762914307
-4.937428113197797
-4.92517887978438
-4.951771966710678
-4.933733595726713
-4.928473659645703
-4.900912301144666
-4.904362982985482
-4.906178782835572
-4.896590643572634
-4.897836436240399
-4.903277213646956
-4.886526725422768
-4.890524770995615
-4.877037042675901
-4.913414861909154
-4.911910525462066
-4.900133929958272
-4.90097876270725
-4.942841234868662
-4.936116930128369
-4.922174617427479
-4.940919055510149
-4.9348638962762195
-4.920552430180856
-4.940740896968735
-4.932988924001427
-4.952250161051958
-4.95471806548759
-4.953996184000672
-4.961560624175231
-4.960518563571842
-4.9689815235516335
-4.963125914224087
-4.962358514216175
-4.968495566967534
-4.96239531724403
-4.955585541429444
-4.963462814930662
-4.957060069395774
-4.964892307576373
-4.961952509175993
-4.961140808062542
-4.967793285948055
-4.959252471114273
-4.965863443239331
-4.965883515492231
-4.959741619055726
-4.966717872548851
-4.979986405444708
-4.977496848980294
-4.979672081637214
-4.977036670964476
-4.979388069827809
-4.976571894050504
-4.9788456712999825
-4.976021073111645
-4.978438208050387
-4.975653613340071
-4.905925415573296
-4.910492041387283
-4.9238451540341375
-4.90489637673693
-4.87530385755469
-4.878286415827411
-4.869242391734624
-4.848385991206594
-4.8636184628367225
-4.855380543779687
-4.833128241514921
-4.847910458424431
-4.884751173572528
-4.864788791494529
-4.901912639283883
-4.967426181292207
-4.959309360949201
-4.958991722002207
-4.9472028155107965
-4.943989301762806
-4.92383456309519
-4.98185622160759
-4.979980892594059
-4.982241515539293
-4.9796027249815085
-4.968389934103281
-4.97324510056579
-4.967515079837523
-4.972863738043656
-4.972568316002228
-4.970432708622511
-4.973580984300586
-4.980823893177003
-4.978531090625311
-4.9815455667065525
-4.979237471832767
-4.98144798594206
-4.979169761525647
-4.930600154459044
-4.938084664918535
-4.917221221989792
-4.928201956486439
-4.936240544460618
-4.914598758693349
-4.910151671348841
-4.903124497638385
-4.909300255976867
-4.907252947633155
-4.90627528189421
-4.901032451685247
-4.89801199543501
-4.902282916729698
-4.893916954448179
-4.907842049570712
-4.913529968000601
-4.910547789088622
-4.914175204088156
-4.908490667915647
-4.909074685006138
-4.908006225396584
-4.911949911673637
-4.908838314985702
-4.892402873923355
-4.882938927168772
-4.872229673499917
-4.881626868563145
-4.85199942156238
-4.845317415048327
-4.811515088223056
-4.893257304763135
-4.896498737561769
-4.873607345865836
-4.598988054524651
-4.95900831472946
-4.950641333432568
-4.957776070750319
-4.949914608882211
-4.9430636298738575
-4.9341289209692105
-4.92585271636229
-4.932391486161785
-4.957038426459888
-4.948287238014199
-4.952700140981616
-4.9447625938184325
-4.9467755903939725
-4.955406164878455
-4.954034603358976
-4.940909924213513
-4.923623678356786
-4.9310587501988286
-4.951197544778908
-4.93125380156727
-4.942552783767542
-4.919931453705353
-4.938162846113067
-4.925773989741811
-4.949360930932251
-4.94296265275144
-4.925631454724282
-4.947147727113767
-4.936529105337024
-4.91676695191357
-4.9458878527305385
-4.968132783341751
-4.969956933935557
-4.97291799858183
-4.969252770770807
-4.972160856754707
-4.978177966020653
-4.975291740421938
-4.977687045339407
-4.974725390550257
-4.973603880863184
-4.970730400158444
-4.974424658884814
-4.97172518080493
-4.975469147955557
-4.9730647050902475
-4.977207144025049
-4.974078057889456
-4.975912004028265
-4.97303906444476
-4.976634955842684
-4.97345465387344
-4.976633072293411
-4.8842293543683235
-4.884765125798256
-4.875602292645827
-4.846324292261038
-4.846301682175157
-4.796740108503335
-4.826496524996302
-4.800237148387242
-4.818985791311765
-4.8107805188723205
-4.565743104532872
-4.623996707745938
-4.856529435469214
-4.84094493114616
-4.848533823047272
-4.892430553528414
-4.865040560587523
-4.909763626885585
-4.981336005245064
-4.9791598116024565
-4.981009092437828
-4.97881375771684
-4.981283150570473
-4.9791085656825755
-4.981338612001991
-4.890268494480004
-4.911232572521182
-4.885737965546621
-4.908262440568769
-4.905297100755765
-4.92980994516203
-4.94157438325658
-4.918687195144444
-4.910114351849571
-4.908698131337351
-4.916752260764713
-4.896869523456526
-4.898442158099468
-4.890090608983442
-4.894753880845501
-4.888109212540065
-4.8794688844983645
-4.887858695478002
-4.886544878637301
-4.88213509445684
-4.875593085278921
-4.8767602959090075
-4.867920902056707
-4.890843439043735
-4.890101310043076
-4.8929789892910165
-4.884497939180082
-4.88079612279246
-4.87086771779087
-4.842655052406005
-4.842840912792247
-4.804540142207821
-4.813748017594391
-4.7573326534153955
-4.865494416522338
-4.828258685023955
-4.643656344158678
-4.686202964365836
-4.610529001050282
-4.939963469160319
-4.932255501408198
-4.909232887763497
-4.9361829723098225
-4.921616172316766
-4.889577241439916
-4.910218087301851
-4.934887317945243
-4.926796409711581
-4.971110085560447
-4.96704329482576